 Gaussian 09, Revision D.01,
 Gaussian 09:  ES64L-G09RevD.01 24-Apr-2013

 ----------------------------------------------------------------------
 #p HF/6-31G guess=read scf=(xqc,maxcon=128,maxcyc=512,conver=8) force
 IOp(1/10=10) IOp(1/18=10) IOp(2/15=3) IOp(2/12=1)
 ----------------------------------------------------------------------

 ----------------------------
 force calculation: 1 0 0 0 0
 ----------------------------
 Symbolic Z-matrix:
 Charge = -1 Multiplicity = 1

                          Input orientation:
 ---------------------------------------------------------------------
 Center     Atomic      Atomic             Coordinates (Angstroms)
 Number     Number       Type             X           Y           Z
 ---------------------------------------------------------------------
      1          6           0        0.061029    0.000340   -3.461200
      2          1           0       -0.915186   -0.119367   -3.027963
      3          1           0        0.571893   -0.945710   -3.437211
      4          1           0        0.595150    0.700797   -2.845503
      5          8           0        0.011192    0.405264   -4.869752
      6          1           0       -0.430164    1.241204   -4.970511
      7          9           0       -0.111051   -0.258172   -0.864232
 ---------------------------------------------------------------------

 SCF Done:  E(RHF) =  -214.366689301     A.U. after   10 cycles

 Alpha  occ. eigenvalues --  -25.75283 -20.38630 -11.07534  -1.18036  -1.02061
 Alpha  occ. eigenvalues --   -0.74394  -0.50158  -0.42856  -0.40184  -0.32035
 Alpha  occ. eigenvalues --   -0.27427  -0.13049  -0.12853  -0.12446
 Alpha virt. eigenvalues --    0.37319   0.46362   0.51394   0.53504   0.58365
 Alpha virt. eigenvalues --    0.95578   0.95781   1.03611   1.29355   1.37001
 Alpha virt. eigenvalues --    1.37250   1.41858   1.45612   1.47057   1.50751

 Mulliken charges:
               1
     1  C   -0.122945
     2  H    0.172685
     3  H    0.143775
     4  H    0.172820
     5  O   -0.811426
     6  H    0.365139
     7  F   -0.920047
 Sum of Mulliken charges =  -1.00000

 Dipole moment (field-independent basis, Debye):
    X=             -0.3680    Y=              2.0775    Z=              7.8644  Tot=              8.1425
 Quadrupole moment (field-independent basis, Debye-Ang):
   XX=            -19.1016   YY=            -17.0782   ZZ=            -50.6787
   XY=             -1.3734   XZ=              4.0060   YZ=             -5.6120

 Normal termination of Gaussian 09 at Thu Feb  6 17:46:56 2020.
