 Gaussian 09, Revision D.01,
 Gaussian 09:  ES64L-G09RevD.01 24-Apr-2013

 --------------
 #p M062X/6-31G
 --------------

 --------
 chk calc
 --------
 Symbolic Z-matrix:
 Charge =  1 Multiplicity = 1

                         Standard orientation:
 ---------------------------------------------------------------------
 Center     Atomic      Atomic             Coordinates (Angstroms)
 Number     Number       Type             X           Y           Z
 ---------------------------------------------------------------------
      1          6           0       -4.371077   -0.931728    0.323544
      2          1           0       -5.277070   -1.531617    0.405966
      3          1           0       -3.656268   -1.473522   -0.300262
      4          1           0        2.340531   -2.265638   -0.845836
      5          1           0       -4.648786    0.023259   -0.131569
      6          1           0       -3.975379   -0.787951    1.332707
      7          6           0        1.655440    0.260693   -0.970789
      8          6           0        0.426339    1.147378   -0.702505
      9          6           0       -0.761060    0.237721   -0.424788
     10          7           0        0.639889    2.023115    0.465474
     11          8           0       -0.727745   -0.978795   -0.588528
     12          8           0       -1.817434    0.934217    0.027816
     13          6           0        1.944323   -0.638769    0.196118
     14          1           0        2.536555    0.885853   -1.158045
     15          1           0        1.474578   -0.344780   -1.861342
     16          1           0        0.198797    1.713353   -1.615634
     17          1           0        1.457286    0.796870    1.482952
     18          1           0       -0.241516    2.339335    0.868050
     19          1           0       -2.627240    0.398401    0.187442
     20          7           0        1.832376   -0.183892    1.405733
     21          8           0        2.366627   -1.882576    0.052299
     22          1           0        1.245149    2.817002    0.268921
     23          1           0        1.932128   -0.479673    1.806015
 ---------------------------------------------------------------------

 SCF Done:  E(RM062X) =  -532.093486173     A.U. after   17 cycles

 The electronic state is 1-A.
 Alpha  occ. eigenvalues --  -19.89790 -19.84418 -19.81002 -15.00330 -14.93288
 Alpha  occ. eigenvalues --  -10.91282 -10.86628 -10.78467 -10.76139 -10.63186
 Alpha  occ. eigenvalues --   -1.44802  -1.40674  -1.34815  -1.31671  -1.19437
 Alpha  occ. eigenvalues --   -1.09636  -1.01279  -0.95522  -0.92369  -0.90122
 Alpha  occ. eigenvalues --   -0.86147  -0.80438  -0.78750  -0.75310  -0.74292
 Alpha  occ. eigenvalues --   -0.73984  -0.73219  -0.69766  -0.66937  -0.65392
 Alpha  occ. eigenvalues --   -0.64460  -0.62727  -0.61134  -0.58359  -0.57195
 Alpha  occ. eigenvalues --   -0.56989  -0.56068  -0.54628  -0.52060  -0.49861
 Alpha virt. eigenvalues --   -0.17781  -0.12691  -0.07569  -0.03191  -0.01040
 Alpha virt. eigenvalues --    0.00099   0.01105   0.04144   0.04493   0.05103
 Alpha virt. eigenvalues --    0.06014   0.07532   0.09679   0.10572   0.10899

 Mulliken charges:
               1
     1  C   -0.698625
     2  H    0.215204
     3  H    0.178991
     4  H    0.471270
     5  H    0.168800
     6  H    0.163238
     7  C   -0.343414
     8  C   -0.112351
     9  C    0.554021
    10  N   -0.796378
    11  O   -0.410838
    12  O   -0.604425
    13  C    0.547940
    14  H    0.264471
    15  H    0.234284
    16  H    0.263373
    17  H    0.477612
    18  H    0.387457
    19  H    0.466083
    20  N   -0.179465
    21  O   -0.531859
    22  H    0.359206
    23  H   -0.074595
 Sum of Mulliken charges =   1.00000

 Dipole moment (field-independent basis, Debye):
    X=              4.5470    Y=              2.2037    Z=             -1.0337  Tot=              5.1576
 Quadrupole moment (field-independent basis, Debye-Ang):
   XX=            -33.0469   YY=            -47.6933   ZZ=            -50.1160
   XY=             -0.4572   XZ=             -5.4572   YZ=              2.4802

 Normal termination of Gaussian 09 at Thu Mar 12 19:00:46 2020.
