 Gaussian 09, Revision D.01,
 Gaussian 09:  ES64L-G09RevD.01 24-Apr-2013

 --------------
 #p M062X/6-31G
 --------------

 --------
 chk calc
 --------
 Symbolic Z-matrix:
 Charge =  1 Multiplicity = 1

                         Standard orientation:
 ---------------------------------------------------------------------
 Center     Atomic      Atomic             Coordinates (Angstroms)
 Number     Number       Type             X           Y           Z
 ---------------------------------------------------------------------
      1          6           0       -4.367890   -0.948657    0.319137
      2          1           0       -5.271277   -1.553345    0.394818
      3          1           0       -3.653841   -1.476565   -0.317318
      4          1           0        2.343384   -2.236134   -0.903020
      5          1           0       -4.651151    0.013210   -0.117699
      6          1           0       -3.968268   -0.821343    1.328965
      7          6           0        1.648377    0.289406   -0.980018
      8          6           0        0.417193    1.166519   -0.690649
      9          6           0       -0.765582    0.247578   -0.423990
     10          7           0        0.632657    2.022159    0.491784
     11          8           0       -0.728478   -0.965701   -0.609492
     12          8           0       -1.822521    0.931911    0.045532
     13          6           0        1.945755   -0.629556    0.169430
     14          1           0        2.526330    0.921129   -1.159959
     15          1           0        1.465826   -0.300823   -1.880407
     16          1           0        0.183517    1.747770   -1.592564
     17          1           0        1.459091    0.781127    1.483713
     18          1           0       -0.248125    2.327832    0.903759
     19          1           0       -2.629619    0.390278    0.199126
     20          7           0        1.837472   -0.196679    1.387424
     21          8           0        2.372031   -1.869001    0.001666
     22          1           0        1.234092    2.821701    0.306753
     23          1           0        2.083756   -0.922606    2.334267
 ---------------------------------------------------------------------

 SCF Done:  E(RM062X) =  -532.900419106     A.U. after   17 cycles

 The electronic state is 1-A.
 Alpha  occ. eigenvalues --  -19.88226 -19.83995 -19.80465 -14.99697 -14.92882
 Alpha  occ. eigenvalues --  -10.89286 -10.86111 -10.77860 -10.75394 -10.63050
 Alpha  occ. eigenvalues --   -1.42621  -1.40198  -1.31184  -1.24348  -1.18172
 Alpha  occ. eigenvalues --   -1.06000  -0.96535  -0.92827  -0.89980  -0.86054
 Alpha  occ. eigenvalues --   -0.81669  -0.79109  -0.76612  -0.73715  -0.73262
 Alpha  occ. eigenvalues --   -0.72481  -0.71226  -0.69068  -0.66153  -0.64586
 Alpha  occ. eigenvalues --   -0.63461  -0.61730  -0.60605  -0.57065  -0.56845
 Alpha  occ. eigenvalues --   -0.55970  -0.55866  -0.54048  -0.51523  -0.49224
 Alpha virt. eigenvalues --   -0.15916  -0.12182  -0.08711  -0.06562  -0.02406
 Alpha virt. eigenvalues --   -0.00542   0.01032   0.01790   0.04747   0.05158
 Alpha virt. eigenvalues --    0.06713   0.07200   0.07896   0.10814   0.11170

 Mulliken charges:
               1
     1  C   -0.698104
     2  H    0.214066
     3  H    0.179764
     4  H    0.463439
     5  H    0.168987
     6  H    0.162312
     7  C   -0.330729
     8  C   -0.110850
     9  C    0.553814
    10  N   -0.792915
    11  O   -0.411005
    12  O   -0.606070
    13  C    0.611655
    14  H    0.258871
    15  H    0.231267
    16  H    0.259896
    17  H    0.448003
    18  H    0.385419
    19  H    0.464710
    20  N   -0.701735
    21  O   -0.549147
    22  H    0.357880
    23  H    0.440473
 Sum of Mulliken charges =   1.00000

 Dipole moment (field-independent basis, Debye):
    X=              4.7547    Y=              1.8232    Z=              0.1171  Tot=              5.0936
 Quadrupole moment (field-independent basis, Debye-Ang):
   XX=            -33.5869   YY=            -48.0891   ZZ=            -46.7132
   XY=             -1.2669   XZ=             -2.7485   YZ=              0.3434

 Normal termination of Gaussian 09 at Thu Mar 12 19:17:10 2020.
