 Gaussian 09, Revision D.01,
 Gaussian 09:  ES64L-G09RevD.01 24-Apr-2013

 --------------
 #p M062X/6-31G
 --------------

 --------
 chk calc
 --------
 Symbolic Z-matrix:
 Charge =  1 Multiplicity = 1

                         Standard orientation:
 ---------------------------------------------------------------------
 Center     Atomic      Atomic             Coordinates (Angstroms)
 Number     Number       Type             X           Y           Z
 ---------------------------------------------------------------------
      1          6           0       -4.366297   -0.957391    0.315673
      2          1           0       -5.268446   -1.564430    0.387191
      3          1           0       -3.652608   -1.477682   -0.327424
      4          1           0        2.344755   -2.220580   -0.932762
      5          1           0       -4.652168    0.008240   -0.111042
      6          1           0       -3.964841   -0.839358    1.325900
      7          6           0        1.645082    0.304339   -0.983339
      8          6           0        0.412927    1.176319   -0.682805
      9          6           0       -0.767658    0.252647   -0.422865
     10          7           0        0.629277    2.020599    0.507605
     11          8           0       -0.728765   -0.958666   -0.620448
     12          8           0       -1.824856    0.930388    0.055551
     13          6           0        1.946448   -0.625418    0.156348
     14          1           0        2.521536    0.939398   -1.158792
     15          1           0        1.461746   -0.277276   -1.889157
     16          1           0        0.176370    1.766047   -1.578444
     17          1           0        1.459951    0.771303    1.485520
     18          1           0       -0.251207    2.320587    0.924370
     19          1           0       -2.630669    0.385804    0.205407
     20          7           0        1.839881   -0.204816    1.378786
     21          8           0        2.374594   -1.862370   -0.024545
     22          1           0        1.228903    2.823019    0.329283
     23          1           0        2.151773   -1.123340    2.552669
 ---------------------------------------------------------------------

 SCF Done:  E(RM062X) =  -532.835900677     A.U. after   17 cycles

 The electronic state is 1-A.
 Alpha  occ. eigenvalues --  -19.87562 -19.83835 -19.80261 -15.00040 -14.92854
 Alpha  occ. eigenvalues --  -10.88501 -10.85920 -10.77665 -10.75171 -10.62989
 Alpha  occ. eigenvalues --   -1.41914  -1.40015  -1.30995  -1.23254  -1.17870
 Alpha  occ. eigenvalues --   -1.05526  -0.96133  -0.92106  -0.89898  -0.85661
 Alpha  occ. eigenvalues --   -0.79642  -0.78358  -0.75957  -0.73414  -0.72883
 Alpha  occ. eigenvalues --   -0.71976  -0.69124  -0.67707  -0.65474  -0.64267
 Alpha  occ. eigenvalues --   -0.62545  -0.61226  -0.60378  -0.57001  -0.56781
 Alpha  occ. eigenvalues --   -0.55843  -0.55082  -0.53735  -0.51319  -0.48985
 Alpha virt. eigenvalues --   -0.18534  -0.15120  -0.11964  -0.06178  -0.02349
 Alpha virt. eigenvalues --   -0.00386   0.01264   0.02038   0.04935   0.05368
 Alpha virt. eigenvalues --    0.07009   0.07270   0.07971   0.11029   0.11290

 Mulliken charges:
               1
     1  C   -0.697947
     2  H    0.213587
     3  H    0.180070
     4  H    0.459910
     5  H    0.168967
     6  H    0.162136
     7  C   -0.329699
     8  C   -0.110868
     9  C    0.554215
    10  N   -0.790734
    11  O   -0.410422
    12  O   -0.606852
    13  C    0.591902
    14  H    0.257359
    15  H    0.230671
    16  H    0.258897
    17  H    0.434411
    18  H    0.385400
    19  H    0.464332
    20  N   -0.639314
    21  O   -0.550237
    22  H    0.358017
    23  H    0.416199
 Sum of Mulliken charges =   1.00000

 Dipole moment (field-independent basis, Debye):
    X=              4.8387    Y=              1.6204    Z=              0.5864  Tot=              5.1364
 Quadrupole moment (field-independent basis, Debye-Ang):
   XX=            -33.5667   YY=            -47.6439   ZZ=            -44.7422
   XY=             -1.8345   XZ=             -1.5043   YZ=             -1.0069

 Normal termination of Gaussian 09 at Thu Mar 12 19:09:18 2020.
