 Gaussian 09, Revision D.01,
 Gaussian 09:  ES64L-G09RevD.01 24-Apr-2013

 --------------
 #p M062X/6-31G
 --------------

 --------
 chk calc
 --------
 Symbolic Z-matrix:
 Charge =  1 Multiplicity = 1

                         Standard orientation:
 ---------------------------------------------------------------------
 Center     Atomic      Atomic             Coordinates (Angstroms)
 Number     Number       Type             X           Y           Z
 ---------------------------------------------------------------------
      1          6           0       -4.367375   -0.951467    0.318095
      2          1           0       -5.270358   -1.556919    0.392477
      3          1           0       -3.653444   -1.476953   -0.320493
      4          1           0        2.343831   -2.231160   -0.912579
      5          1           0       -4.651490    0.011602   -0.115526
      6          1           0       -3.967152   -0.827093    1.328051
      7          6           0        1.647297    0.294201   -0.981175
      8          6           0        0.415795    1.169678   -0.688228
      9          6           0       -0.766265    0.249210   -0.423671
     10          7           0        0.631550    2.021724    0.496745
     11          8           0       -0.728575   -0.963458   -0.613010
     12          8           0       -1.823288    0.931444    0.048705
     13          6           0        1.945981   -0.628195    0.165181
     14          1           0        2.524761    0.927002   -1.159714
     15          1           0        1.464489   -0.293302   -1.883293
     16          1           0        0.181176    1.753624   -1.588155
     17          1           0        1.459372    0.778064    1.484216
     18          1           0       -0.249135    2.325584    0.910266
     19          1           0       -2.629967    0.388858    0.201134
     20          7           0        1.838260   -0.199212    1.384601
     21          8           0        2.372868   -1.866856   -0.006763
     22          1           0        1.232394    2.822196    0.313827
     23          1           0        2.106212   -0.988697    2.407692
 ---------------------------------------------------------------------

 SCF Done:  E(RM062X) =  -532.880009724     A.U. after   17 cycles

 The electronic state is 1-A.
 Alpha  occ. eigenvalues --  -19.88003 -19.83939 -19.80394 -14.99939 -14.92859
 Alpha  occ. eigenvalues --  -10.89025 -10.86044 -10.77789 -10.75316 -10.63030
 Alpha  occ. eigenvalues --   -1.42380  -1.40134  -1.31118  -1.23915  -1.18055
 Alpha  occ. eigenvalues --   -1.05815  -0.96374  -0.92572  -0.89951  -0.85888
 Alpha  occ. eigenvalues --   -0.80710  -0.78897  -0.76348  -0.73591  -0.73126
 Alpha  occ. eigenvalues --   -0.72295  -0.70226  -0.68886  -0.65985  -0.64478
 Alpha  occ. eigenvalues --   -0.63240  -0.61576  -0.60533  -0.57043  -0.56824
 Alpha  occ. eigenvalues --   -0.55895  -0.55620  -0.53952  -0.51453  -0.49144
 Alpha virt. eigenvalues --   -0.15648  -0.12374  -0.11920  -0.06439  -0.02412
 Alpha virt. eigenvalues --   -0.00488   0.01112   0.01875   0.04814   0.05231
 Alpha virt. eigenvalues --    0.06818   0.07204   0.07916   0.10898   0.11213

 Mulliken charges:
               1
     1  C   -0.698047
     2  H    0.213901
     3  H    0.179867
     4  H    0.462246
     5  H    0.168987
     6  H    0.162242
     7  C   -0.330123
     8  C   -0.110830
     9  C    0.553930
    10  N   -0.792343
    11  O   -0.410855
    12  O   -0.606324
    13  C    0.608842
    14  H    0.258342
    15  H    0.231075
    16  H    0.259509
    17  H    0.442953
    18  H    0.385354
    19  H    0.464568
    20  N   -0.687399
    21  O   -0.549949
    22  H    0.357866
    23  H    0.436187
 Sum of Mulliken charges =   1.00000

 Dipole moment (field-independent basis, Debye):
    X=              4.7846    Y=              1.7547    Z=              0.2765  Tot=              5.1037
 Quadrupole moment (field-independent basis, Debye-Ang):
   XX=            -33.5934   YY=            -47.9790   ZZ=            -46.0762
   XY=             -1.4488   XZ=             -2.3335   YZ=             -0.0882

 Normal termination of Gaussian 09 at Thu Mar 12 19:07:27 2020.
