 Gaussian 09, Revision D.01,
 Gaussian 09:  ES64L-G09RevD.01 24-Apr-2013

 --------------
 #p M062X/6-31G
 --------------

 --------
 chk calc
 --------
 Symbolic Z-matrix:
 Charge =  1 Multiplicity = 1

                         Standard orientation:
 ---------------------------------------------------------------------
 Center     Atomic      Atomic             Coordinates (Angstroms)
 Number     Number       Type             X           Y           Z
 ---------------------------------------------------------------------
      1          6           0       -4.368389   -0.945948    0.320071
      2          1           0       -5.272173   -1.549890    0.396964
      3          1           0       -3.654225   -1.476164   -0.314333
      4          1           0        2.342946   -2.240905   -0.893812
      5          1           0       -4.650812    0.014771   -0.119824
      6          1           0       -3.969358   -0.815844    1.329776
      7          6           0        1.649438    0.284790   -0.978817
      8          6           0        0.418568    1.163467   -0.692881
      9          6           0       -0.764909    0.246002   -0.424256
     10          7           0        0.633746    2.022514    0.487132
     11          8           0       -0.728378   -0.967846   -0.606106
     12          8           0       -1.821763    0.932340    0.042523
     13          6           0        1.945534   -0.630902    0.173569
     14          1           0        2.527872    0.915471   -1.160067
     15          1           0        1.467140   -0.308023   -1.877558
     16          1           0        0.185817    1.742153   -1.596682
     17          1           0        1.458816    0.783980    1.483309
     18          1           0       -0.247132    2.329920    0.897611
     19          1           0       -2.629272    0.391629    0.197203
     20          7           0        1.836700   -0.194325    1.390192
     21          8           0        2.371210   -1.871087    0.009791
     22          1           0        1.235760    2.821156    0.300107
     23          1           0        2.061508   -0.857290    2.260264
 ---------------------------------------------------------------------

 SCF Done:  E(RM062X) =  -532.916528378     A.U. after   17 cycles

 The electronic state is 1-A.
 Alpha  occ. eigenvalues --  -19.88450 -19.84053 -19.80537 -14.99313 -14.92916
 Alpha  occ. eigenvalues --  -10.89543 -10.86181 -10.77934 -10.75475 -10.63071
 Alpha  occ. eigenvalues --   -1.42867  -1.40263  -1.31252  -1.24901  -1.18306
 Alpha  occ. eigenvalues --   -1.06226  -0.96744  -0.93106  -0.90009  -0.86318
 Alpha  occ. eigenvalues --   -0.82939  -0.79295  -0.76919  -0.73883  -0.73410
 Alpha  occ. eigenvalues --   -0.72728  -0.72018  -0.69189  -0.66292  -0.64695
 Alpha  occ. eigenvalues --   -0.63638  -0.61877  -0.60678  -0.57087  -0.56867
 Alpha  occ. eigenvalues --   -0.56242  -0.55924  -0.54139  -0.51595  -0.49303
 Alpha virt. eigenvalues --   -0.16184  -0.12245  -0.06760  -0.05324  -0.02254
 Alpha virt. eigenvalues --   -0.00590   0.00962   0.01705   0.04677   0.05083
 Alpha virt. eigenvalues --    0.06606   0.07234   0.07890   0.10719   0.11127

 Mulliken charges:
               1
     1  C   -0.698165
     2  H    0.214233
     3  H    0.179660
     4  H    0.464640
     5  H    0.168981
     6  H    0.162395
     7  C   -0.331760
     8  C   -0.110887
     9  C    0.553713
    10  N   -0.793387
    11  O   -0.411118
    12  O   -0.605821
    13  C    0.609532
    14  H    0.259431
    15  H    0.231461
    16  H    0.260316
    17  H    0.453499
    18  H    0.385534
    19  H    0.464865
    20  N   -0.703531
    21  O   -0.547843
    22  H    0.357939
    23  H    0.436313
 Sum of Mulliken charges =   1.00000

 Dipole moment (field-independent basis, Debye):
    X=              4.7244    Y=              1.8901    Z=             -0.0434  Tot=              5.0886
 Quadrupole moment (field-independent basis, Debye-Ang):
   XX=            -33.5632   YY=            -48.1599   ZZ=            -47.3203
   XY=             -1.0971   XZ=             -3.1574   YZ=              0.7490

 Normal termination of Gaussian 09 at Thu Mar 12 19:06:30 2020.
