 Gaussian 09, Revision D.01,
 Gaussian 09:  ES64L-G09RevD.01 24-Apr-2013

 --------------
 #p M062X/6-31G
 --------------

 --------
 chk calc
 --------
 Symbolic Z-matrix:
 Charge =  1 Multiplicity = 1

                         Standard orientation:
 ---------------------------------------------------------------------
 Center     Atomic      Atomic             Coordinates (Angstroms)
 Number     Number       Type             X           Y           Z
 ---------------------------------------------------------------------
      1          6           0       -4.369797   -0.938409    0.322248
      2          1           0       -5.274721   -1.540235    0.402271
      3          1           0       -3.655302   -1.474887   -0.306491
      4          1           0        2.341694   -2.254072   -0.868281
      5          1           0       -4.649796    0.019193   -0.125915
      6          1           0       -3.972477   -0.800822    1.331637
      7          6           0        1.652516    0.271986   -0.974964
      8          6           0        0.422553    1.154949   -0.698480
      9          6           0       -0.762945    0.241614   -0.424742
     10          7           0        0.636898    2.023127    0.474984
     11          8           0       -0.728070   -0.973719   -0.596736
     12          8           0       -1.819553    0.933418    0.034463
     13          6           0        1.944905   -0.634870    0.185329
     14          1           0        2.532332    0.899749   -1.159604
     15          1           0        1.470953   -0.327754   -1.869247
     16          1           0        0.192480    1.726710   -1.607359
     17          1           0        1.458026    0.791317    1.482689
     18          1           0       -0.244252    2.335271    0.881282
     19          1           0       -2.628246    0.395291    0.191945
     20          7           0        1.834472   -0.188323    1.398183
     21          8           0        2.368845   -1.877028    0.032365
     22          1           0        1.240584    2.819251    0.282686
     23          1           0        1.995967   -0.665629    2.035140
 ---------------------------------------------------------------------

 SCF Done:  E(RM062X) =  -532.868584079     A.U. after   17 cycles

 The electronic state is 1-A.
 Alpha  occ. eigenvalues --  -19.89112 -19.84228 -19.80759 -14.97558 -14.93056
 Alpha  occ. eigenvalues --  -10.90313 -10.86392 -10.78173 -10.75750 -10.63130
 Alpha  occ. eigenvalues --   -1.43666  -1.40460  -1.31459  -1.28105  -1.18822
 Alpha  occ. eigenvalues --   -1.07381  -0.98141  -0.94258  -0.90199  -0.89515
 Alpha  occ. eigenvalues --   -0.85615  -0.79805  -0.77885  -0.74661  -0.73855
 Alpha  occ. eigenvalues --   -0.73528  -0.72823  -0.69477  -0.66624  -0.65025
 Alpha  occ. eigenvalues --   -0.64052  -0.62293  -0.60894  -0.57246  -0.57107
 Alpha  occ. eigenvalues --   -0.56930  -0.56000  -0.54386  -0.51815  -0.49543
 Alpha virt. eigenvalues --   -0.16972  -0.12456  -0.07158  -0.03007  -0.00828
 Alpha virt. eigenvalues --    0.00419   0.01404   0.03293   0.04487   0.04852
 Alpha virt. eigenvalues --    0.06294   0.07544   0.08519   0.10407   0.11012

 Mulliken charges:
               1
     1  C   -0.698370
     2  H    0.214719
     3  H    0.179343
     4  H    0.468164
     5  H    0.168929
     6  H    0.162722
     7  C   -0.337164
     8  C   -0.111193
     9  C    0.553563
    10  N   -0.794626
    11  O   -0.411230
    12  O   -0.605102
    13  C    0.576748
    14  H    0.261415
    15  H    0.232267
    16  H    0.261692
    17  H    0.469598
    18  H    0.386157
    19  H    0.465392
    20  N   -0.580111
    21  O   -0.541313
    22  H    0.358325
    23  H    0.320075
 Sum of Mulliken charges =   1.00000

 Dipole moment (field-independent basis, Debye):
    X=              4.6373    Y=              2.0636    Z=             -0.5219  Tot=              5.1025
 Quadrupole moment (field-independent basis, Debye-Ang):
   XX=            -33.3809   YY=            -48.1272   ZZ=            -48.8961
   XY=             -0.6972   XZ=             -4.3166   YZ=              1.7571

 Normal termination of Gaussian 09 at Thu Mar 12 19:03:35 2020.
