 Gaussian 09, Revision D.01,
 Gaussian 09:  ES64L-G09RevD.01 24-Apr-2013

 --------------
 #p M062X/6-31G
 --------------

 --------
 chk calc
 --------
 Symbolic Z-matrix:
 Charge =  1 Multiplicity = 1

                         Standard orientation:
 ---------------------------------------------------------------------
 Center     Atomic      Atomic             Coordinates (Angstroms)
 Number     Number       Type             X           Y           Z
 ---------------------------------------------------------------------
      1          6           0       -4.370664   -0.933862    0.323206
      2          1           0       -5.276308   -1.534376    0.404907
      3          1           0       -3.655957   -1.473986   -0.302163
      4          1           0        2.340909   -2.261951   -0.852979
      5          1           0       -4.649122    0.021941   -0.129733
      6          1           0       -3.974435   -0.792007    1.332433
      7          6           0        1.654482    0.264294   -0.972213
      8          6           0        0.425098    1.149797   -0.701332
      9          6           0       -0.761680    0.238965   -0.424820
     10          7           0        0.638910    2.023185    0.468357
     11          8           0       -0.727855   -0.977188   -0.591136
     12          8           0       -1.818130    0.933979    0.029877
     13          6           0        1.944512   -0.637474    0.192628
     14          1           0        2.535173    0.890287   -1.158680
     15          1           0        1.473390   -0.339397   -1.863929
     16          1           0        0.196729    1.717576   -1.613134
     17          1           0        1.457527    0.795213    1.482767
     18          1           0       -0.242412    2.338117    0.872123
     19          1           0       -2.627573    0.397423    0.188860
     20          7           0        1.833060   -0.185196    1.403263
     21          8           0        2.367351   -1.880765    0.045943
     22          1           0        1.243656    2.817786    0.273112
     23          1           0        1.953227   -0.541082    1.882783
 ---------------------------------------------------------------------

 SCF Done:  E(RM062X) =  -532.539459648     A.U. after   17 cycles

 The electronic state is 1-A.
 Alpha  occ. eigenvalues --  -19.89554 -19.84348 -19.80913 -14.97604 -14.93188
 Alpha  occ. eigenvalues --  -10.90901 -10.86541 -10.78354 -10.75985 -10.63166
 Alpha  occ. eigenvalues --   -1.44365  -1.40596  -1.32507  -1.31576  -1.19231
 Alpha  occ. eigenvalues --   -1.08819  -1.00266  -0.95184  -0.91811  -0.90085
 Alpha  occ. eigenvalues --   -0.86001  -0.80189  -0.78461  -0.75105  -0.74131
 Alpha  occ. eigenvalues --   -0.73836  -0.73088  -0.69660  -0.66824  -0.65257
 Alpha  occ. eigenvalues --   -0.64309  -0.62571  -0.61046  -0.57938  -0.57174
 Alpha  occ. eigenvalues --   -0.56968  -0.56044  -0.54542  -0.51969  -0.49730
 Alpha virt. eigenvalues --   -0.17495  -0.12605  -0.07434  -0.03106  -0.00959
 Alpha virt. eigenvalues --    0.00224   0.01218   0.04207   0.04576   0.04895
 Alpha virt. eigenvalues --    0.06113   0.07554   0.09566   0.10366   0.10940

 Mulliken charges:
               1
     1  C   -0.698528
     2  H    0.215031
     3  H    0.179118
     4  H    0.470297
     5  H    0.168857
     6  H    0.163032
     7  C   -0.341322
     8  C   -0.111816
     9  C    0.553758
    10  N   -0.795705
    11  O   -0.411066
    12  O   -0.604645
    13  C    0.552795
    14  H    0.263248
    15  H    0.233376
    16  H    0.262731
    17  H    0.476205
    18  H    0.386885
    19  H    0.465815
    20  N   -0.346736
    21  O   -0.535424
    22  H    0.358799
    23  H    0.095293
 Sum of Mulliken charges =   1.00000

 Dipole moment (field-independent basis, Debye):
    X=              4.5810    Y=              2.1543    Z=             -0.8483  Tot=              5.1328
 Quadrupole moment (field-independent basis, Debye-Ang):
   XX=            -33.1730   YY=            -47.8893   ZZ=            -49.7275
   XY=             -0.5301   XZ=             -5.0529   YZ=              2.2524

 Normal termination of Gaussian 09 at Thu Mar 12 19:01:42 2020.
