 Gaussian 09, Revision D.01,
 Gaussian 09:  ES64L-G09RevD.01 24-Apr-2013

 --------------
 #p M062X/6-31G
 --------------

 --------
 chk calc
 --------
 Symbolic Z-matrix:
 Charge =  1 Multiplicity = 1

                         Standard orientation:
 ---------------------------------------------------------------------
 Center     Atomic      Atomic             Coordinates (Angstroms)
 Number     Number       Type             X           Y           Z
 ---------------------------------------------------------------------
      1          6           0       -4.363940   -0.970496    0.309391
      2          1           0       -5.264315   -1.580926    0.374072
      3          1           0       -3.650766   -1.478918   -0.343692
      4          1           0        2.346724   -2.196677   -0.977437
      5          1           0       -4.653519    0.000862   -0.101531
      6          1           0       -3.959887   -0.867039    1.320181
      7          6           0        1.640415    0.326882   -0.986989
      8          6           0        0.406890    1.190887   -0.669519
      9          6           0       -0.770563    0.260223   -0.420546
     10          7           0        0.624488    2.017234    0.533184
     11          8           0       -0.729122   -0.947787   -0.636942
     12          8           0       -1.828122    0.927721    0.071285
     13          6           0        1.947446   -0.619584    0.137329
     14          1           0        2.514724    0.966868   -1.155086
     15          1           0        1.455974   -0.241143   -1.901168
     16          1           0        0.166244    1.793764   -1.555259
     17          1           0        1.461180    0.755153    1.489309
     18          1           0       -0.255564    2.308441    0.957031
     19          1           0       -2.632098    0.378780    0.214987
     20          7           0        1.843311   -0.218203    1.366420
     21          8           0        2.378251   -1.852468   -0.063879
     22          1           0        1.221533    2.823880    0.365591
     23          1           0        2.245638   -1.403467    2.834049
 ---------------------------------------------------------------------

 SCF Done:  E(RM062X) =  -532.758301474     A.U. after   17 cycles

 The electronic state is 1-A.
 Alpha  occ. eigenvalues --  -19.86706 -19.83674 -19.80043 -14.99255 -14.93059
 Alpha  occ. eigenvalues --  -10.87444 -10.85724 -10.77504 -10.74894 -10.62919
 Alpha  occ. eigenvalues --   -1.41035  -1.39819  -1.30793  -1.22302  -1.17653
 Alpha  occ. eigenvalues --   -1.05131  -0.95823  -0.91263  -0.89801  -0.85369
 Alpha  occ. eigenvalues --   -0.78940  -0.77204  -0.75546  -0.73226  -0.72481
 Alpha  occ. eigenvalues --   -0.71413  -0.68751  -0.66311  -0.64313  -0.63855
 Alpha  occ. eigenvalues --   -0.60991  -0.60299  -0.58672  -0.56930  -0.56707
 Alpha  occ. eigenvalues --   -0.55764  -0.54299  -0.53101  -0.51091  -0.48626
 Alpha virt. eigenvalues --   -0.27303  -0.14113  -0.11766  -0.05689  -0.02210
 Alpha virt. eigenvalues --   -0.00227   0.01490   0.02328   0.05095   0.05597
 Alpha virt. eigenvalues --    0.07300   0.07474   0.08100   0.11184   0.11386

 Mulliken charges:
               1
     1  C   -0.697814
     2  H    0.213069
     3  H    0.180459
     4  H    0.455489
     5  H    0.168840
     6  H    0.162055
     7  C   -0.329114
     8  C   -0.111498
     9  C    0.555008
    10  N   -0.784664
    11  O   -0.408942
    12  O   -0.608032
    13  C    0.544589
    14  H    0.255461
    15  H    0.229602
    16  H    0.258593
    17  H    0.421150
    18  H    0.386340
    19  H    0.464087
    20  N   -0.543908
    21  O   -0.548717
    22  H    0.359265
    23  H    0.378681
 Sum of Mulliken charges =   1.00000

 Dipole moment (field-independent basis, Debye):
    X=              4.9068    Y=              1.3951    Z=              1.1525  Tot=              5.2299
 Quadrupole moment (field-independent basis, Debye-Ang):
   XX=            -33.4242   YY=            -46.5362   ZZ=            -41.9884
   XY=             -2.6369   XZ=              0.0851   YZ=             -2.9641

 Normal termination of Gaussian 09 at Thu Mar 12 19:13:01 2020.
