 Gaussian 09, Revision D.01,
 Gaussian 09:  ES64L-G09RevD.01 24-Apr-2013

 --------------
 #p M062X/6-31G
 --------------

 --------
 chk calc
 --------
 Symbolic Z-matrix:
 Charge =  1 Multiplicity = 1

                         Standard orientation:
 ---------------------------------------------------------------------
 Center     Atomic      Atomic             Coordinates (Angstroms)
 Number     Number       Type             X           Y           Z
 ---------------------------------------------------------------------
      1          6           0       -4.365153   -0.963732    0.312780
      2          1           0       -5.266434   -1.572430    0.381069
      3          1           0       -3.651717   -1.478341   -0.335149
      4          1           0        2.345719   -2.209106   -0.954378
      5          1           0       -4.652844    0.004666   -0.106375
      6          1           0       -3.962421   -0.852666    1.323290
      7          6           0        1.642789    0.315225   -0.985286
      8          6           0        0.409959    1.183389   -0.676579
      9          6           0       -0.769091    0.256317   -0.421827
     10          7           0        0.626924    2.019113    0.519742
     11          8           0       -0.728948   -0.953451   -0.628423
     12          8           0       -1.826467    0.929154    0.063073
     13          6           0        1.946937   -0.622555    0.147066
     14          1           0        2.518192    0.952680   -1.157263
     15          1           0        1.458909   -0.259905   -1.895126
     16          1           0        0.171395    1.779426   -1.567497
     17          1           0        1.460554    0.763674    1.487218
     18          1           0       -0.253349    2.314888    0.939950
     19          1           0       -2.631380    0.382451    0.210025
     20          7           0        1.841564   -0.211145    1.372731
     21          8           0        2.376388   -1.857588   -0.043577
     22          1           0        1.225284    2.823593    0.346523
     23          1           0        2.198233   -1.261503    2.694895
 ---------------------------------------------------------------------

 SCF Done:  E(RM062X) =  -532.794416049     A.U. after   17 cycles

 The electronic state is 1-A.
 Alpha  occ. eigenvalues --  -19.87131 -19.83746 -19.80144 -14.99761 -14.92920
 Alpha  occ. eigenvalues --  -10.87975 -10.85814 -10.77571 -10.75034 -10.62952
 Alpha  occ. eigenvalues --   -1.41468  -1.39910  -1.30887  -1.22742  -1.17741
 Alpha  occ. eigenvalues --   -1.05308  -0.95958  -0.91674  -0.89848  -0.85498
 Alpha  occ. eigenvalues --   -0.79188  -0.77757  -0.75710  -0.73298  -0.72670
 Alpha  occ. eigenvalues --   -0.71686  -0.68893  -0.66710  -0.64773  -0.64061
 Alpha  occ. eigenvalues --   -0.61532  -0.60661  -0.60062  -0.56964  -0.56742
 Alpha  occ. eigenvalues --   -0.55801  -0.54632  -0.53462  -0.51200  -0.48819
 Alpha virt. eigenvalues --   -0.23572  -0.14610  -0.11858  -0.05928  -0.02275
 Alpha virt. eigenvalues --   -0.00299   0.01390   0.02187   0.05028   0.05488
 Alpha virt. eigenvalues --    0.07168   0.07367   0.08033   0.11119   0.11344

 Mulliken charges:
               1
     1  C   -0.697870
     2  H    0.213310
     3  H    0.180267
     4  H    0.457658
     5  H    0.168917
     6  H    0.162076
     7  C   -0.329530
     8  C   -0.111077
     9  C    0.554580
    10  N   -0.788233
    11  O   -0.409784
    12  O   -0.607419
    13  C    0.567750
    14  H    0.256429
    15  H    0.230205
    16  H    0.258581
    17  H    0.427402
    18  H    0.385731
    19  H    0.464173
    20  N   -0.586659
    21  O   -0.549503
    22  H    0.358480
    23  H    0.394516
 Sum of Mulliken charges =   1.00000

 Dipole moment (field-independent basis, Debye):
    X=              4.8799    Y=              1.5000    Z=              0.8775  Tot=              5.1801
 Quadrupole moment (field-independent basis, Debye-Ang):
   XX=            -33.5049   YY=            -47.1604   ZZ=            -43.3727
   XY=             -2.2313   XZ=             -0.6985   YZ=             -1.9686

 Normal termination of Gaussian 09 at Thu Mar 12 19:11:09 2020.
