 Gaussian 09, Revision D.01,
 Gaussian 09:  ES64L-G09RevD.01 24-Apr-2013

 --------------
 #p M062X/6-31G
 --------------

 --------
 chk calc
 --------
 Symbolic Z-matrix:
 Charge =  1 Multiplicity = 1

                         Standard orientation:
 ---------------------------------------------------------------------
 Center     Atomic      Atomic             Coordinates (Angstroms)
 Number     Number       Type             X           Y           Z
 ---------------------------------------------------------------------
      1          6           0       -4.366844   -0.954378    0.316941
      2          1           0       -5.269414   -1.560613    0.389936
      3          1           0       -3.653033   -1.477326   -0.323860
      4          1           0        2.344288   -2.225978   -0.922492
      5          1           0       -4.651829    0.009946   -0.113307
      6          1           0       -3.966010   -0.833097    1.327031
      7          6           0        1.646199    0.299178   -0.982282
      8          6           0        0.414373    1.172945   -0.685615
      9          6           0       -0.766957    0.250900   -0.423296
     10          7           0        0.630424    2.021205    0.502017
     11          8           0       -0.728671   -0.961114   -0.616662
     12          8           0       -1.824067    0.930937    0.052044
     13          6           0        1.946212   -0.626816    0.160821
     14          1           0        2.523163    0.933090   -1.159327
     15          1           0        1.463129   -0.285455   -1.886210
     16          1           0        0.178794    1.759716   -1.583451
     17          1           0        1.459659    0.774791    1.484818
     18          1           0       -0.250163    2.323170    0.917135
     19          1           0       -2.630317    0.387367    0.203228
     20          7           0        1.839063   -0.201924    1.381722
     21          8           0        2.373723   -1.864647   -0.015499
     22          1           0        1.230665    2.822637    0.321335
     23          1           0        2.128883   -1.055596    2.480506
 ---------------------------------------------------------------------

 SCF Done:  E(RM062X) =  -532.857997805     A.U. after   17 cycles

 The electronic state is 1-A.
 Alpha  occ. eigenvalues --  -19.87781 -19.83885 -19.80325 -15.00047 -14.92848
 Alpha  occ. eigenvalues --  -10.88764 -10.85980 -10.77724 -10.75242 -10.63009
 Alpha  occ. eigenvalues --   -1.42145  -1.40073  -1.31055  -1.23558  -1.17955
 Alpha  occ. eigenvalues --   -1.05659  -0.96243  -0.92333  -0.89924  -0.85763
 Alpha  occ. eigenvalues --   -0.80059  -0.78646  -0.76131  -0.73493  -0.73000
 Alpha  occ. eigenvalues --   -0.72130  -0.69436  -0.68450  -0.65767  -0.64371
 Alpha  occ. eigenvalues --   -0.62947  -0.61412  -0.60458  -0.57022  -0.56802
 Alpha  occ. eigenvalues --   -0.55867  -0.55343  -0.53848  -0.51384  -0.49065
 Alpha virt. eigenvalues --   -0.15519  -0.15379  -0.12019  -0.06307  -0.02385
 Alpha virt. eigenvalues --   -0.00436   0.01191   0.01958   0.04877   0.05302
 Alpha virt. eigenvalues --    0.06917   0.07231   0.07943   0.10970   0.11254

 Mulliken charges:
               1
     1  C   -0.697994
     2  H    0.213740
     3  H    0.179970
     4  H    0.461068
     5  H    0.168980
     6  H    0.162183
     7  C   -0.329823
     8  C   -0.110831
     9  C    0.554063
    10  N   -0.791631
    11  O   -0.410662
    12  O   -0.606584
    13  C    0.601907
    14  H    0.257838
    15  H    0.230877
    16  H    0.259171
    17  H    0.438437
    18  H    0.385344
    19  H    0.464441
    20  N   -0.665372
    21  O   -0.550287
    22  H    0.357907
    23  H    0.427258
 Sum of Mulliken charges =   1.00000

 Dipole moment (field-independent basis, Debye):
    X=              4.8130    Y=              1.6864    Z=              0.4336  Tot=              5.1183
 Quadrupole moment (field-independent basis, Debye-Ang):
   XX=            -33.5857   YY=            -47.8304   ZZ=            -45.4161
   XY=             -1.6393   XZ=             -1.9168   YZ=             -0.5405

 Normal termination of Gaussian 09 at Thu Mar 12 19:08:22 2020.
