 Gaussian 09, Revision D.01,
 Gaussian 09:  ES64L-G09RevD.01 24-Apr-2013

 --------------
 #p M062X/6-31G
 --------------

 --------
 chk calc
 --------
 Symbolic Z-matrix:
 Charge =  1 Multiplicity = 1

                         Standard orientation:
 ---------------------------------------------------------------------
 Center     Atomic      Atomic             Coordinates (Angstroms)
 Number     Number       Type             X           Y           Z
 ---------------------------------------------------------------------
      1          6           0       -4.365733   -0.960509    0.314287
      2          1           0       -5.267453   -1.568368    0.384237
      3          1           0       -3.652170   -1.478021   -0.331186
      4          1           0        2.345232   -2.214958   -0.943390
      5          1           0       -4.652506    0.006480   -0.108731
      6          1           0       -3.963645   -0.845880    1.324655
      7          6           0        1.643945    0.309687   -0.984341
      8          6           0        0.411456    1.179800   -0.679794
      9          6           0       -0.768369    0.254453   -0.422376
     10          7           0        0.628111    2.019903    0.513512
     11          8           0       -0.728857   -0.956113   -0.624368
     12          8           0       -1.825656    0.929795    0.059227
     13          6           0        1.946690   -0.623999    0.151764
     14          1           0        2.519879    0.945927   -1.158106
     15          1           0        1.460340   -0.268762   -1.892130
     16          1           0        0.173904    1.772616   -1.573128
     17          1           0        1.460250    0.767598    1.486320
     18          1           0       -0.252269    2.317828    0.931974
     19          1           0       -2.631024    0.384166    0.207673
     20          7           0        1.840715   -0.207890    1.375789
     21          8           0        2.375483   -1.860018   -0.033903
     22          1           0        1.227110    2.823339    0.337677
     23          1           0        2.174888   -1.191964    2.624145
 ---------------------------------------------------------------------

 SCF Done:  E(RM062X) =  -532.814562989     A.U. after   17 cycles

 The electronic state is 1-A.
 Alpha  occ. eigenvalues --  -19.87346 -19.83789 -19.80201 -14.99937 -14.92877
 Alpha  occ. eigenvalues --  -10.88239 -10.85865 -10.77615 -10.75102 -10.62970
 Alpha  occ. eigenvalues --   -1.41689  -1.39961  -1.30939  -1.22986  -1.17800
 Alpha  occ. eigenvalues --   -1.05411  -0.96039  -0.91887  -0.89873  -0.85574
 Alpha  occ. eigenvalues --   -0.79373  -0.78055  -0.75820  -0.73349  -0.72774
 Alpha  occ. eigenvalues --   -0.71829  -0.68986  -0.67093  -0.65115  -0.64164
 Alpha  occ. eigenvalues --   -0.62029  -0.60989  -0.60275  -0.56982  -0.56761
 Alpha  occ. eigenvalues --   -0.55821  -0.54844  -0.53608  -0.51258  -0.48904
 Alpha virt. eigenvalues --   -0.21230  -0.14863  -0.11909  -0.06051  -0.02312
 Alpha virt. eigenvalues --   -0.00341   0.01330   0.02114   0.04985   0.05429
 Alpha virt. eigenvalues --    0.07092   0.07317   0.08002   0.11078   0.11319

 Mulliken charges:
               1
     1  C   -0.697906
     2  H    0.213444
     3  H    0.180169
     4  H    0.458773
     5  H    0.168946
     6  H    0.162101
     7  C   -0.329635
     8  C   -0.110948
     9  C    0.554388
    10  N   -0.789610
    11  O   -0.410129
    12  O   -0.607130
    13  C    0.580099
    14  H    0.256895
    15  H    0.230451
    16  H    0.258700
    17  H    0.430769
    18  H    0.385530
    19  H    0.464243
    20  N   -0.612276
    21  O   -0.549925
    22  H    0.358208
    23  H    0.404843
 Sum of Mulliken charges =   1.00000

 Dipole moment (field-independent basis, Debye):
    X=              4.8610    Y=              1.5583    Z=              0.7341  Tot=              5.1572
 Quadrupole moment (field-independent basis, Debye-Ang):
   XX=            -33.5392   YY=            -47.4202   ZZ=            -44.0608
   XY=             -2.0318   XZ=             -1.0987   YZ=             -1.4832

 Normal termination of Gaussian 09 at Thu Mar 12 19:10:14 2020.
