 Gaussian 09, Revision D.01,
 Gaussian 09:  ES64L-G09RevD.01 24-Apr-2013

 --------------
 #p M062X/6-31G
 --------------

 --------
 chk calc
 --------
 Symbolic Z-matrix:
 Charge =  1 Multiplicity = 1

                         Standard orientation:
 ---------------------------------------------------------------------
 Center     Atomic      Atomic             Coordinates (Angstroms)
 Number     Number       Type             X           Y           Z
 ---------------------------------------------------------------------
      1          6           0       -4.370238   -0.936088    0.322775
      2          1           0       -5.275525   -1.537248    0.403677
      3          1           0       -3.655636   -1.474441   -0.304239
      4          1           0        2.341297   -2.258098   -0.860460
      5          1           0       -4.649459    0.020586   -0.127848
      6          1           0       -3.973468   -0.796297    1.332077
      7          6           0        1.653507    0.268057   -0.973605
      8          6           0        0.423837    1.152321   -0.699992
      9          6           0       -0.762308    0.240262   -0.424805
     10          7           0        0.637913    2.023190    0.471525
     11          8           0       -0.727963   -0.975496   -0.593872
     12          8           0       -1.818837    0.933713    0.032092
     13          6           0        1.944705   -0.636175    0.189032
     14          1           0        2.533765    0.894918   -1.159201
     15          1           0        1.472182   -0.333723   -1.866565
     16          1           0        0.194623    1.722028   -1.610378
     17          1           0        1.457773    0.793363    1.482679
     18          1           0       -0.243324    2.336763    0.876532
     19          1           0       -2.627909    0.396387    0.190361
     20          7           0        1.833759   -0.186673    1.400747
     21          8           0        2.368090   -1.878917    0.039300
     22          1           0        1.242134    2.818536    0.277699
     23          1           0        1.974505   -0.603056    1.959168
 ---------------------------------------------------------------------

 SCF Done:  E(RM062X) =  -532.762235860     A.U. after   17 cycles

 The electronic state is 1-A.
 Alpha  occ. eigenvalues --  -19.89331 -19.84287 -19.80834 -14.97180 -14.93116
 Alpha  occ. eigenvalues --  -10.90589 -10.86465 -10.78260 -10.75860 -10.63148
 Alpha  occ. eigenvalues --   -1.43985  -1.40527  -1.31535  -1.30059  -1.19025
 Alpha  occ. eigenvalues --   -1.08031  -0.99124  -0.94749  -0.90997  -0.90023
 Alpha  occ. eigenvalues --   -0.85839  -0.79985  -0.78178  -0.74895  -0.73990
 Alpha  occ. eigenvalues --   -0.73689  -0.72960  -0.69566  -0.66723  -0.65138
 Alpha  occ. eigenvalues --   -0.64178  -0.62429  -0.60968  -0.57568  -0.57151
 Alpha  occ. eigenvalues --   -0.56949  -0.56022  -0.54463  -0.51890  -0.49630
 Alpha virt. eigenvalues --   -0.17230  -0.12529  -0.07297  -0.03043  -0.00890
 Alpha virt. eigenvalues --    0.00337   0.01316   0.04083   0.04504   0.04796
 Alpha virt. eigenvalues --    0.06202   0.07563   0.09120   0.10333   0.10976

 Mulliken charges:
               1
     1  C   -0.698445
     2  H    0.214874
     3  H    0.179233
     4  H    0.469261
     5  H    0.168898
     6  H    0.162864
     7  C   -0.339258
     8  C   -0.111442
     9  C    0.553615
    10  N   -0.795125
    11  O   -0.411180
    12  O   -0.604870
    13  C    0.563145
    14  H    0.262255
    15  H    0.232734
    16  H    0.262189
    17  H    0.473488
    18  H    0.386476
    19  H    0.465592
    20  N   -0.480404
    21  O   -0.538515
    22  H    0.358529
    23  H    0.226088
 Sum of Mulliken charges =   1.00000

 Dipole moment (field-independent basis, Debye):
    X=              4.6096    Y=              2.1102    Z=             -0.6819  Tot=              5.1153
 Quadrupole moment (field-independent basis, Debye-Ang):
   XX=            -33.2854   YY=            -48.0315   ZZ=            -49.3302
   XY=             -0.6056   XZ=             -4.6828   YZ=              2.0185

 Normal termination of Gaussian 09 at Thu Mar 12 19:02:39 2020.
