 Gaussian 09, Revision D.01,
 Gaussian 09:  ES64L-G09RevD.01 24-Apr-2013

 --------------
 #p M062X/6-31G
 --------------

 --------
 chk calc
 --------
 Symbolic Z-matrix:
 Charge =  1 Multiplicity = 1

                         Standard orientation:
 ---------------------------------------------------------------------
 Center     Atomic      Atomic             Coordinates (Angstroms)
 Number     Number       Type             X           Y           Z
 ---------------------------------------------------------------------
      1          6           0       -4.364555   -0.967060    0.311149
      2          1           0       -5.265388   -1.576616    0.377682
      3          1           0       -3.651249   -1.478641   -0.339317
      4          1           0        2.346216   -2.203015   -0.965726
      5          1           0       -4.653182    0.002794   -0.103975
      6          1           0       -3.961169   -0.859717    1.321800
      7          6           0        1.641612    0.320956   -0.986169
      8          6           0        0.408437    1.187084   -0.673155
      9          6           0       -0.769822    0.258241   -0.421217
     10          7           0        0.625716    2.018225    0.526298
     11          8           0       -0.729036   -0.950676   -0.632614
     12          8           0       -1.827288    0.928464    0.067092
     13          6           0        1.947189   -0.621084    0.142255
     14          1           0        2.516474    0.959659   -1.156258
     15          1           0        1.457454   -0.250701   -1.898139
     16          1           0        0.168841    1.786475   -1.561543
     17          1           0        1.460864    0.759526    1.488215
     18          1           0       -0.254447    2.311761    0.948301
     19          1           0       -2.631738    0.380656    0.212463
     20          7           0        1.842430   -0.214582    1.369608
     21          8           0        2.377311   -1.855073   -0.053568
     22          1           0        1.223425    2.823775    0.355825
     23          1           0        2.221815   -1.331992    2.764876
 ---------------------------------------------------------------------

 SCF Done:  E(RM062X) =  -532.775640465     A.U. after   17 cycles

 The electronic state is 1-A.
 Alpha  occ. eigenvalues --  -19.86918 -19.83708 -19.80092 -14.99528 -14.92980
 Alpha  occ. eigenvalues --  -10.87710 -10.85767 -10.77534 -10.74965 -10.62935
 Alpha  occ. eigenvalues --   -1.41249  -1.39863  -1.30838  -1.22515  -1.17693
 Alpha  occ. eigenvalues --   -1.05216  -0.95886  -0.91466  -0.89825  -0.85430
 Alpha  occ. eigenvalues --   -0.79050  -0.77473  -0.75620  -0.73257  -0.72573
 Alpha  occ. eigenvalues --   -0.71547  -0.68817  -0.66472  -0.64506  -0.63958
 Alpha  occ. eigenvalues --   -0.61205  -0.60414  -0.59497  -0.56946  -0.56724
 Alpha  occ. eigenvalues --   -0.55782  -0.54450  -0.53293  -0.51144  -0.48727
 Alpha virt. eigenvalues --   -0.25584  -0.14360  -0.11810  -0.05807  -0.02241
 Alpha virt. eigenvalues --   -0.00261   0.01443   0.02258   0.05065   0.05544
 Alpha virt. eigenvalues --    0.07238   0.07420   0.08066   0.11154   0.11366

 Mulliken charges:
               1
     1  C   -0.697840
     2  H    0.213185
     3  H    0.180364
     4  H    0.456562
     5  H    0.168882
     6  H    0.162061
     7  C   -0.329353
     8  C   -0.111259
     9  C    0.554787
    10  N   -0.786584
    11  O   -0.409387
    12  O   -0.607720
    13  C    0.555758
    14  H    0.255953
    15  H    0.229923
    16  H    0.258545
    17  H    0.424218
    18  H    0.386002
    19  H    0.464121
    20  N   -0.563760
    21  O   -0.549082
    22  H    0.358833
    23  H    0.385793
 Sum of Mulliken charges =   1.00000

 Dipole moment (field-independent basis, Debye):
    X=              4.8952    Y=              1.4455    Z=              1.0171  Tot=              5.2046
 Quadrupole moment (field-independent basis, Debye-Ang):
   XX=            -33.4660   YY=            -46.8652   ZZ=            -42.6803
   XY=             -2.4331   XZ=             -0.3034   YZ=             -2.4629

 Normal termination of Gaussian 09 at Thu Mar 12 19:12:05 2020.
