 Gaussian 09, Revision D.01,
 Gaussian 09:  ES64L-G09RevD.01 24-Apr-2013

 --------------
 #p M062X/6-31G
 --------------

 --------
 chk calc
 --------
 Symbolic Z-matrix:
 Charge =  1 Multiplicity = 1

                         Standard orientation:
 ---------------------------------------------------------------------
 Center     Atomic      Atomic             Coordinates (Angstroms)
 Number     Number       Type             X           Y           Z
 ---------------------------------------------------------------------
      1          6           0       -4.363306   -0.974041    0.307502
      2          1           0       -5.263215   -1.585361    0.370233
      3          1           0       -3.650268   -1.479172   -0.348278
      4          1           0        2.347241   -2.190084   -0.989512
      5          1           0       -4.653855   -0.001132   -0.099045
      6          1           0       -3.958577   -0.874632    1.318427
      7          6           0        1.639197    0.333007   -0.987740
      8          6           0        0.405315    1.194795   -0.665665
      9          6           0       -0.771315    0.262264   -0.419810
     10          7           0        0.623237    2.016137    0.540403
     11          8           0       -0.729207   -0.944780   -0.641405
     12          8           0       -1.828966    0.926923    0.075654
     13          6           0        1.947709   -0.618051    0.132290
     14          1           0        2.512943    0.974307   -1.153741
     15          1           0        1.454468   -0.231228   -1.904206
     16          1           0        0.163601    1.801292   -1.548639
     17          1           0        1.461502    0.750552    1.490500
     18          1           0       -0.256699    2.304921    0.966141
     19          1           0       -2.632459    0.376819    0.217597
     20          7           0        1.844209   -0.222006    1.363164
     21          8           0        2.379209   -1.849766   -0.074512
     22          1           0        1.219606    2.823904    0.375824
     23          1           0        2.269709   -1.475962    2.902368
 ---------------------------------------------------------------------

 SCF Done:  E(RM062X) =  -532.742404151     A.U. after   17 cycles

 The electronic state is 1-A.
 Alpha  occ. eigenvalues --  -19.86496 -19.83643 -19.79999 -14.98950 -14.93154
 Alpha  occ. eigenvalues --  -10.87180 -10.85686 -10.77482 -10.74823 -10.62904
 Alpha  occ. eigenvalues --   -1.40825  -1.39778  -1.30753  -1.22101  -1.17619
 Alpha  occ. eigenvalues --   -1.05054  -0.95766  -0.91066  -0.89777  -0.85314
 Alpha  occ. eigenvalues --   -0.78849  -0.76951  -0.75484  -0.73205  -0.72394
 Alpha  occ. eigenvalues --   -0.71284  -0.68692  -0.66190  -0.64173  -0.63752
 Alpha  occ. eigenvalues --   -0.60824  -0.60222  -0.57808  -0.56914  -0.56691
 Alpha  occ. eigenvalues --   -0.55748  -0.54175  -0.52891  -0.51040  -0.48512
 Alpha virt. eigenvalues --   -0.28773  -0.13871  -0.11726  -0.05575  -0.02182
 Alpha virt. eigenvalues --   -0.00197   0.01530   0.02395   0.05119   0.05647
 Alpha virt. eigenvalues --    0.07357   0.07526   0.08135   0.11210   0.11404

 Mulliken charges:
               1
     1  C   -0.697794
     2  H    0.212964
     3  H    0.180553
     4  H    0.454444
     5  H    0.168792
     6  H    0.162057
     7  C   -0.328836
     8  C   -0.111796
     9  C    0.555241
    10  N   -0.782486
    11  O   -0.408450
    12  O   -0.608352
    13  C    0.534480
    14  H    0.254956
    15  H    0.229245
    16  H    0.258727
    17  H    0.418172
    18  H    0.386744
    19  H    0.464070
    20  N   -0.527067
    21  O   -0.548436
    22  H    0.359774
    23  H    0.372997
 Sum of Mulliken charges =   1.00000

 Dipole moment (field-independent basis, Debye):
    X=              4.9147    Y=              1.3487    Z=              1.2832  Tot=              5.2554
 Quadrupole moment (field-independent basis, Debye-Ang):
   XX=            -33.3809   YY=            -46.1751   ZZ=            -41.3019
   XY=             -2.8419   XZ=              0.4652   YZ=             -3.4703

 Normal termination of Gaussian 09 at Thu Mar 12 19:13:56 2020.
