 Gaussian 09, Revision D.01,
 Gaussian 09:  ES64L-G09RevD.01 24-Apr-2013

 --------------
 #p M062X/6-31G
 --------------

 --------
 chk calc
 --------
 Symbolic Z-matrix:
 Charge =  1 Multiplicity = 1

                         Standard orientation:
 ---------------------------------------------------------------------
 Center     Atomic      Atomic             Coordinates (Angstroms)
 Number     Number       Type             X           Y           Z
 ---------------------------------------------------------------------
      1          6           0       -4.369343   -0.940825    0.321624
      2          1           0       -5.273894   -1.543336    0.400686
      3          1           0       -3.654955   -1.475324   -0.308923
      4          1           0        2.342102   -2.249868   -0.876446
      5          1           0       -4.650134    0.017761   -0.123933
      6          1           0       -3.971462   -0.805587    1.331109
      7          6           0        1.651507    0.276082   -0.976287
      8          6           0        0.421247    1.157682   -0.696793
      9          6           0       -0.763591    0.243021   -0.424631
     10          7           0        0.635866    2.022996    0.478735
     11          8           0       -0.728174   -0.971853   -0.599729
     12          8           0       -1.820280    0.933091    0.036990
     13          6           0        1.945109   -0.633557    0.181518
     14          1           0        2.530872    0.904783   -1.159885
     15          1           0        1.469704   -0.321484   -1.871975
     16          1           0        0.190298    1.731624   -1.604075
     17          1           0        1.458283    0.789073    1.482797
     18          1           0       -0.245196    2.333635    0.886376
     19          1           0       -2.628586    0.394134    0.193613
     20          7           0        1.835200   -0.190148    1.395570
     21          8           0        2.369617   -1.875096    0.025137
     22          1           0        1.239006    2.819928    0.288079
     23          1           0        2.017619   -0.728836    2.110668
 ---------------------------------------------------------------------

 SCF Done:  E(RM062X) =  -532.912753618     A.U. after   17 cycles

 The electronic state is 1-A.
 Alpha  occ. eigenvalues --  -19.88893 -19.84170 -19.80685 -14.98175 -14.93003
 Alpha  occ. eigenvalues --  -10.90053 -10.86321 -10.78091 -10.75652 -10.63111
 Alpha  occ. eigenvalues --   -1.43384  -1.40395  -1.31390  -1.26666  -1.18632
 Alpha  occ. eigenvalues --   -1.06885  -0.97465  -0.93802  -0.90083  -0.88057
 Alpha  occ. eigenvalues --   -0.85202  -0.79634  -0.77575  -0.74393  -0.73715
 Alpha  occ. eigenvalues --   -0.73329  -0.72664  -0.69386  -0.66522  -0.64914
 Alpha  occ. eigenvalues --   -0.63925  -0.62157  -0.60822  -0.57137  -0.56910
 Alpha  occ. eigenvalues --   -0.56865  -0.55976  -0.54307  -0.51741  -0.49462
 Alpha virt. eigenvalues --   -0.16713  -0.12385  -0.07018  -0.03029  -0.00785
 Alpha virt. eigenvalues --    0.00340   0.01428   0.01879   0.04540   0.04928
 Alpha virt. eigenvalues --    0.06393   0.07460   0.08085   0.10509   0.11049

 Mulliken charges:
               1
     1  C   -0.698298
     2  H    0.214561
     3  H    0.179450
     4  H    0.467018
     5  H    0.168952
     6  H    0.162598
     7  C   -0.335109
     8  C   -0.111037
     9  C    0.553575
    10  N   -0.794195
    11  O   -0.411232
    12  O   -0.605337
    13  C    0.590696
    14  H    0.260685
    15  H    0.231929
    16  H    0.261219
    17  H    0.464702
    18  H    0.385901
    19  H    0.465206
    20  N   -0.647794
    21  O   -0.543848
    22  H    0.358163
    23  H    0.382197
 Sum of Mulliken charges =   1.00000

 Dipole moment (field-independent basis, Debye):
    X=              4.6654    Y=              2.0115    Z=             -0.3633  Tot=              5.0935
 Quadrupole moment (field-independent basis, Debye-Ang):
   XX=            -33.4597   YY=            -48.1796   ZZ=            -48.4169
   XY=             -0.8097   XZ=             -3.9430   YZ=              1.4593

 Normal termination of Gaussian 09 at Thu Mar 12 19:04:31 2020.
