 Gaussian 09, Revision D.01,
 Gaussian 09:  ES64L-G09RevD.01 24-Apr-2013

 -----------
 #p HF/6-31G
 -----------

 --------
 chk calc
 --------
 Symbolic Z-matrix:
 Charge =  0 Multiplicity = 1

                         Standard orientation:
 ---------------------------------------------------------------------
 Center     Atomic      Atomic             Coordinates (Angstroms)
 Number     Number       Type             X           Y           Z
 ---------------------------------------------------------------------
      1          8           0        0.000000    0.115289    0.000000
      2          1           0        0.732015   -0.514007    0.000000
      3          1           0       -0.732015   -0.408308    0.000000
 ---------------------------------------------------------------------

 SCF Done:  E(RHF) =  -75.9800827529     A.U. after   10 cycles

 The electronic state is 1-A'.
 Alpha  occ. eigenvalues --  -20.55595  -1.37219  -0.72299  -0.56552  -0.50329
 Alpha virt. eigenvalues --    0.20815   0.30656   1.05699   1.16409   1.20706
 Alpha virt. eigenvalues --    1.23804   1.39583   1.69923

 Mulliken charges:
               1
     1  O   -0.780394
     2  H    0.393461
     3  H    0.386933
 Sum of Mulliken charges =   0.00000

 Dipole moment (field-independent basis, Debye):
    X=             -0.0867    Y=             -2.6314    Z=              0.0000  Tot=              2.6328
 Quadrupole moment (field-independent basis, Debye-Ang):
   XX=             -4.2947   YY=             -6.1012   ZZ=             -7.1490
   XY=             -0.1653   XZ=              0.0000   YZ=              0.0000

 Normal termination of Gaussian 09 at Tue Mar 17 13:43:21 2020.
