 Gaussian 09, Revision D.01,
 Gaussian 09:  ES64L-G09RevD.01 24-Apr-2013

 -----------
 #p HF/6-31G
 -----------

 --------
 chk calc
 --------
 Symbolic Z-matrix:
 Charge =  0 Multiplicity = 1

                         Standard orientation:
 ---------------------------------------------------------------------
 Center     Atomic      Atomic             Coordinates (Angstroms)
 Number     Number       Type             X           Y           Z
 ---------------------------------------------------------------------
      1          8           0        0.000000    0.182934    0.000000
      2          1           0        0.922669   -0.100866    0.000000
      3          1           0       -0.922669   -1.362603    0.000000
 ---------------------------------------------------------------------

 SCF Done:  E(RHF) =  -75.8047369861     A.U. after   11 cycles

 The electronic state is 1-A'.
 Alpha  occ. eigenvalues --  -20.61319  -1.28772  -0.61963  -0.50268  -0.44396
 Alpha virt. eigenvalues --    0.01214   0.24676   0.97177   1.12507   1.16171
 Alpha virt. eigenvalues --    1.22501   1.30232   1.56692

 Mulliken charges:
               1
     1  O   -0.599164
     2  H    0.399813
     3  H    0.199350
 Sum of Mulliken charges =   0.00000

 Dipole moment (field-independent basis, Debye):
    X=              1.0342    Y=             -2.2901    Z=              0.0000  Tot=              2.5128
 Quadrupole moment (field-independent basis, Debye-Ang):
   XX=             -4.4215   YY=             -4.9007   ZZ=             -7.8164
   XY=              1.6638   XZ=              0.0000   YZ=              0.0000

 Normal termination of Gaussian 09 at Tue Mar 17 13:43:25 2020.
