 Gaussian 09, Revision D.01,
 Gaussian 09:  ES64L-G09RevD.01 24-Apr-2013

 -----------
 #p HF/6-31G
 -----------

 --------
 chk calc
 --------
 Symbolic Z-matrix:
 Charge =  0 Multiplicity = 1

                         Standard orientation:
 ---------------------------------------------------------------------
 Center     Atomic      Atomic             Coordinates (Angstroms)
 Number     Number       Type             X           Y           Z
 ---------------------------------------------------------------------
      1          8           0        0.000000    0.174423    0.000000
      2          1           0        0.913930   -0.136370    0.000000
      3          1           0       -0.913930   -1.259011    0.000000
 ---------------------------------------------------------------------

 SCF Done:  E(RHF) =  -75.8261152268     A.U. after   11 cycles

 The electronic state is 1-A'.
 Alpha  occ. eigenvalues --  -20.61014  -1.28829  -0.62017  -0.50139  -0.45890
 Alpha virt. eigenvalues --    0.03218   0.24890   0.95945   1.12464   1.16213
 Alpha virt. eigenvalues --    1.22749   1.32074   1.57534

 Mulliken charges:
               1
     1  O   -0.620550
     2  H    0.400345
     3  H    0.220205
 Sum of Mulliken charges =   0.00000

 Dipole moment (field-independent basis, Debye):
    X=              0.9415    Y=             -2.3569    Z=              0.0000  Tot=              2.5379
 Quadrupole moment (field-independent basis, Debye-Ang):
   XX=             -4.3584   YY=             -5.1125   ZZ=             -7.7823
   XY=              1.5438   XZ=              0.0000   YZ=              0.0000

 Normal termination of Gaussian 09 at Tue Mar 17 13:43:24 2020.
