 Gaussian 09, Revision D.01,
 Gaussian 09:  ES64L-G09RevD.01 24-Apr-2013

 -----------
 #p HF/6-31G
 -----------

 --------
 chk calc
 --------
 Symbolic Z-matrix:
 Charge =  0 Multiplicity = 1

                         Standard orientation:
 ---------------------------------------------------------------------
 Center     Atomic      Atomic             Coordinates (Angstroms)
 Number     Number       Type             X           Y           Z
 ---------------------------------------------------------------------
      1          8           0        0.000000    0.142329    0.000000
      2          1           0        0.856481   -0.302981    0.000000
      3          1           0       -0.856481   -0.835649    0.000000
 ---------------------------------------------------------------------

 SCF Done:  E(RHF) =  -75.9224795483     A.U. after   11 cycles

 The electronic state is 1-A'.
 Alpha  occ. eigenvalues --  -20.59094  -1.30193  -0.63850  -0.52385  -0.49796
 Alpha virt. eigenvalues --    0.13127   0.26302   0.94369   1.12121   1.16331
 Alpha virt. eigenvalues --    1.22867   1.36995   1.65638

 Mulliken charges:
               1
     1  O   -0.736258
     2  H    0.401678
     3  H    0.334580
 Sum of Mulliken charges =   0.00000

 Dipole moment (field-independent basis, Debye):
    X=              0.4638    Y=             -2.6020    Z=              0.0000  Tot=              2.6430
 Quadrupole moment (field-independent basis, Debye-Ang):
   XX=             -4.1547   YY=             -5.8731   ZZ=             -7.5512
   XY=              0.8397   XZ=              0.0000   YZ=              0.0000

 Normal termination of Gaussian 09 at Tue Mar 17 13:43:23 2020.
