 Gaussian 09, Revision D.01,
 Gaussian 09:  ES64L-G09RevD.01 24-Apr-2013

 -----------
 #p HF/6-31G
 -----------

 --------
 chk calc
 --------
 Symbolic Z-matrix:
 Charge =  0 Multiplicity = 1

                         Standard orientation:
 ---------------------------------------------------------------------
 Center     Atomic      Atomic             Coordinates (Angstroms)
 Number     Number       Type             X           Y           Z
 ---------------------------------------------------------------------
      1          8           0        0.000000    0.121380    0.000000
      2          1           0        0.772538   -0.457451    0.000000
      3          1           0       -0.772538   -0.513589    0.000000
 ---------------------------------------------------------------------

 SCF Done:  E(RHF) =  -75.9816952485     A.U. after   10 cycles

 The electronic state is 1-A'.
 Alpha  occ. eigenvalues --  -20.56602  -1.34433  -0.69497  -0.55826  -0.50050
 Alpha virt. eigenvalues --    0.19726   0.29263   1.04211   1.15812   1.16413
 Alpha virt. eigenvalues --    1.21953   1.37230   1.69748

 Mulliken charges:
               1
     1  O   -0.792949
     2  H    0.396604
     3  H    0.396345
 Sum of Mulliken charges =   0.00000

 Dipole moment (field-independent basis, Debye):
    X=              0.0467    Y=             -2.6516    Z=              0.0000  Tot=              2.6521
 Quadrupole moment (field-independent basis, Debye-Ang):
   XX=             -4.2066   YY=             -6.1300   ZZ=             -7.2617
   XY=              0.0901   XZ=              0.0000   YZ=              0.0000

 Normal termination of Gaussian 09 at Tue Mar 17 13:43:21 2020.
