 Gaussian 09, Revision D.01,
 Gaussian 09:  ES64L-G09RevD.01 24-Apr-2013

 -----------
 #p HF/6-31G
 -----------

 --------
 chk calc
 --------
 Symbolic Z-matrix:
 Charge =  0 Multiplicity = 1

                         Standard orientation:
 ---------------------------------------------------------------------
 Center     Atomic      Atomic             Coordinates (Angstroms)
 Number     Number       Type             X           Y           Z
 ---------------------------------------------------------------------
      1          8           0        0.000000    0.149996    0.000000
      2          1           0        0.875214   -0.257264    0.000000
      3          1           0       -0.875214   -0.942707    0.000000
 ---------------------------------------------------------------------

 SCF Done:  E(RHF) =  -75.8974182910     A.U. after   11 cycles

 The electronic state is 1-A'.
 Alpha  occ. eigenvalues --  -20.59707  -1.29588  -0.62983  -0.50799  -0.49839
 Alpha virt. eigenvalues --    0.10436   0.25806   0.93526   1.12205   1.16304
 Alpha virt. eigenvalues --    1.22935   1.36527   1.63207

 Mulliken charges:
               1
     1  O   -0.704844
     2  H    0.401825
     3  H    0.303019
 Sum of Mulliken charges =   0.00000

 Dipole moment (field-independent basis, Debye):
    X=              0.5977    Y=             -2.5514    Z=              0.0000  Tot=              2.6205
 Quadrupole moment (field-independent basis, Debye-Ang):
   XX=             -4.1903   YY=             -5.7096   ZZ=             -7.6258
   XY=              1.0517   XZ=              0.0000   YZ=              0.0000

 Normal termination of Gaussian 09 at Tue Mar 17 13:43:23 2020.
