 Gaussian 09, Revision D.01,
 Gaussian 09:  ES64L-G09RevD.01 24-Apr-2013

 -----------
 #p HF/6-31G
 -----------

 --------
 chk calc
 --------
 Symbolic Z-matrix:
 Charge =  0 Multiplicity = 1

                         Standard orientation:
 ---------------------------------------------------------------------
 Center     Atomic      Atomic             Coordinates (Angstroms)
 Number     Number       Type             X           Y           Z
 ---------------------------------------------------------------------
      1          8           0        0.000000    0.127963    0.000000
      2          1           0        0.806074   -0.403173    0.000000
      3          1           0       -0.806074   -0.620532    0.000000
 ---------------------------------------------------------------------

 SCF Done:  E(RHF) =  -75.9678651311     A.U. after   11 cycles

 The electronic state is 1-A'.
 Alpha  occ. eigenvalues --  -20.57538  -1.32466  -0.67082  -0.54929  -0.49881
 Alpha virt. eigenvalues --    0.18021   0.27981   1.00337   1.12798   1.16391
 Alpha virt. eigenvalues --    1.22420   1.36972   1.69101

 Mulliken charges:
               1
     1  O   -0.785712
     2  H    0.399139
     3  H    0.386573
 Sum of Mulliken charges =   0.00000

 Dipole moment (field-independent basis, Debye):
    X=              0.1844    Y=             -2.6545    Z=              0.0000  Tot=              2.6609
 Quadrupole moment (field-independent basis, Debye-Ang):
   XX=             -4.1556   YY=             -6.0944   ZZ=             -7.3677
   XY=              0.3517   XZ=              0.0000   YZ=              0.0000

 Normal termination of Gaussian 09 at Tue Mar 17 13:43:22 2020.
