 Gaussian 09, Revision D.01,
 Gaussian 09:  ES64L-G09RevD.01 24-Apr-2013

 -----------
 #p HF/6-31G
 -----------

 --------
 chk calc
 --------
 Symbolic Z-matrix:
 Charge =  0 Multiplicity = 1

                         Standard orientation:
 ---------------------------------------------------------------------
 Center     Atomic      Atomic             Coordinates (Angstroms)
 Number     Number       Type             X           Y           Z
 ---------------------------------------------------------------------
      1          8           0        0.000000    0.157925    0.000000
      2          1           0        0.890649   -0.214370    0.000000
      3          1           0       -0.890649   -1.049031    0.000000
 ---------------------------------------------------------------------

 SCF Done:  E(RHF) =  -75.8726691711     A.U. after   11 cycles

 The electronic state is 1-A'.
 Alpha  occ. eigenvalues --  -20.60221  -1.29198  -0.62459  -0.49917  -0.49134
 Alpha virt. eigenvalues --    0.07842   0.25433   0.93752   1.12305   1.16277
 Alpha virt. eigenvalues --    1.22941   1.35513   1.60843

 Mulliken charges:
               1
     1  O   -0.673952
     2  H    0.401505
     3  H    0.272447
 Sum of Mulliken charges =   0.00000

 Dipole moment (field-independent basis, Debye):
    X=              0.7230    Y=             -2.4907    Z=              0.0000  Tot=              2.5935
 Quadrupole moment (field-independent basis, Debye-Ang):
   XX=             -4.2397   YY=             -5.5233   ZZ=             -7.6885
   XY=              1.2392   XZ=              0.0000   YZ=              0.0000

 Normal termination of Gaussian 09 at Tue Mar 17 13:43:24 2020.
