 Gaussian 09, Revision D.01,
 Gaussian 09:  ES64L-G09RevD.01 24-Apr-2013

 -----------
 #p HF/6-31G
 -----------

 --------
 chk calc
 --------
 Symbolic Z-matrix:
 Charge =  0 Multiplicity = 1

                         Standard orientation:
 ---------------------------------------------------------------------
 Center     Atomic      Atomic             Coordinates (Angstroms)
 Number     Number       Type             X           Y           Z
 ---------------------------------------------------------------------
      1          8           0        0.000000    0.191589    0.000000
      2          1           0        0.929931   -0.067424    0.000000
      3          1           0       -0.929931   -1.465284    0.000000
 ---------------------------------------------------------------------

 SCF Done:  E(RHF) =  -75.7847364532     A.U. after   12 cycles

 The electronic state is 1-A'.
 Alpha  occ. eigenvalues --  -20.61575  -1.28766  -0.61970  -0.50402  -0.43010
 Alpha virt. eigenvalues --   -0.00599   0.24488   0.98056   1.12506   1.16122
 Alpha virt. eigenvalues --    1.22129   1.28809   1.56227

 Mulliken charges:
               1
     1  O   -0.581245
     2  H    0.399416
     3  H    0.181830
 Sum of Mulliken charges =   0.00000

 Dipole moment (field-independent basis, Debye):
    X=              1.1169    Y=             -2.2261    Z=              0.0000  Tot=              2.4906
 Quadrupole moment (field-independent basis, Debye-Ang):
   XX=             -4.4848   YY=             -4.6919   ZZ=             -7.8441
   XY=              1.7647   XZ=              0.0000   YZ=              0.0000

 Normal termination of Gaussian 09 at Tue Mar 17 13:43:25 2020.
