 Gaussian 09, Revision D.01,
 Gaussian 09:  ES64L-G09RevD.01 24-Apr-2013

 -----------
 #p HF/6-31G
 -----------

 --------
 chk calc
 --------
 Symbolic Z-matrix:
 Charge =  0 Multiplicity = 1

                         Standard orientation:
 ---------------------------------------------------------------------
 Center     Atomic      Atomic             Coordinates (Angstroms)
 Number     Number       Type             X           Y           Z
 ---------------------------------------------------------------------
      1          8           0        0.000000    0.100833    0.000000
      2          1           0        0.557976   -0.686900    0.000000
      3          1           0       -0.557976   -0.119764    0.000000
 ---------------------------------------------------------------------

 SCF Done:  E(RHF) =  -75.6412990816     A.U. after   10 cycles

 The electronic state is 1-A'.
 Alpha  occ. eigenvalues --  -20.53543  -1.52192  -0.81057  -0.58456  -0.52036
 Alpha virt. eigenvalues --    0.21911   0.33189   1.02952   1.15652   1.16772
 Alpha virt. eigenvalues --    1.32605   1.72530   2.10800

 Mulliken charges:
               1
     1  O   -0.590466
     2  H    0.386408
     3  H    0.204057
 Sum of Mulliken charges =   0.00000

 Dipole moment (field-independent basis, Debye):
    X=             -0.4752    Y=             -2.5154    Z=              0.0000  Tot=              2.5599
 Quadrupole moment (field-independent basis, Debye-Ang):
   XX=             -4.7080   YY=             -5.5934   ZZ=             -6.7739
   XY=             -0.7268   XZ=              0.0000   YZ=              0.0000

 Normal termination of Gaussian 09 at Tue Mar 17 13:43:20 2020.
