 Gaussian 09, Revision D.01,
 Gaussian 09:  ES64L-G09RevD.01 24-Apr-2013

 -----------
 #p HF/6-31G
 -----------

 --------
 chk calc
 --------
 Symbolic Z-matrix:
 Charge =  0 Multiplicity = 1

                         Standard orientation:
 ---------------------------------------------------------------------
 Center     Atomic      Atomic             Coordinates (Angstroms)
 Number     Number       Type             X           Y           Z
 ---------------------------------------------------------------------
      1          8           0        0.000000    0.104923    0.000000
      2          1           0        0.625599   -0.630255    0.000000
      3          1           0       -0.625599   -0.209126    0.000000
 ---------------------------------------------------------------------

 SCF Done:  E(RHF) =  -75.8540419057     A.U. after   10 cycles

 The electronic state is 1-A'.
 Alpha  occ. eigenvalues --  -20.53760  -1.46060  -0.78276  -0.57805  -0.51297
 Alpha virt. eigenvalues --    0.21754   0.32704   1.04452   1.16129   1.18336
 Alpha virt. eigenvalues --    1.31851   1.70246   1.75467

 Mulliken charges:
               1
     1  O   -0.679132
     2  H    0.387495
     3  H    0.291637
 Sum of Mulliken charges =   0.00000

 Dipole moment (field-independent basis, Debye):
    X=             -0.3466    Y=             -2.5586    Z=              0.0000  Tot=              2.5820
 Quadrupole moment (field-independent basis, Debye-Ang):
   XX=             -4.5579   YY=             -5.8304   ZZ=             -6.9071
   XY=             -0.5884   XZ=              0.0000   YZ=              0.0000

 Normal termination of Gaussian 09 at Tue Mar 17 13:43:20 2020.
