 Gaussian 09, Revision D.01,
 Gaussian 09:  ES64L-G09RevD.01 24-Apr-2013

 -----------
 #p HF/6-31G
 -----------

 --------
 chk calc
 --------
 Symbolic Z-matrix:
 Charge =  0 Multiplicity = 1

                         Standard orientation:
 ---------------------------------------------------------------------
 Center     Atomic      Atomic             Coordinates (Angstroms)
 Number     Number       Type             X           Y           Z
 ---------------------------------------------------------------------
      1          8           0        0.000000    0.134967    0.000000
      2          1           0        0.833722   -0.351620    0.000000
      3          1           0       -0.833722   -0.728113    0.000000
 ---------------------------------------------------------------------

 SCF Done:  E(RHF) =  -75.9467060903     A.U. after   11 cycles

 The electronic state is 1-A'.
 Alpha  occ. eigenvalues --  -20.58372  -1.31110  -0.65190  -0.53785  -0.49804
 Alpha virt. eigenvalues --    0.15742   0.26997   0.96615   1.12168   1.16361
 Alpha virt. eigenvalues --    1.22710   1.37060   1.67710

 Mulliken charges:
               1
     1  O   -0.764828
     2  H    0.400833
     3  H    0.363994
 Sum of Mulliken charges =   0.00000

 Dipole moment (field-independent basis, Debye):
    X=              0.3246    Y=             -2.6376    Z=              0.0000  Tot=              2.6575
 Quadrupole moment (field-independent basis, Debye-Ang):
   XX=             -4.1404   YY=             -6.0049   ZZ=             -7.4648
   XY=              0.6048   XZ=              0.0000   YZ=              0.0000

 Normal termination of Gaussian 09 at Tue Mar 17 13:43:22 2020.
