 Gaussian 09, Revision D.01,
 Gaussian 09:  ES64L-G09RevD.01 24-Apr-2013

 -----------
 #p HF/6-31G
 -----------

 --------
 chk calc
 --------
 Symbolic Z-matrix:
 Charge =  0 Multiplicity = 1

                         Standard orientation:
 ---------------------------------------------------------------------
 Center     Atomic      Atomic             Coordinates (Angstroms)
 Number     Number       Type             X           Y           Z
 ---------------------------------------------------------------------
      1          8           0        0.000000    0.097600    0.000000
      2          1           0        0.480380   -0.739714    0.000000
      3          1           0       -0.480380   -0.041090    0.000000
 ---------------------------------------------------------------------

 SCF Done:  E(RHF) =  -75.1899752208     A.U. after   10 cycles

 The electronic state is 1-A'.
 Alpha  occ. eigenvalues --  -20.55139  -1.58778  -0.83511  -0.59212  -0.53004
 Alpha virt. eigenvalues --    0.21978   0.33501   1.00792   1.14710   1.15254
 Alpha virt. eigenvalues --    1.32763   1.75236   2.61506

 Mulliken charges:
               1
     1  O   -0.486529
     2  H    0.388194
     3  H    0.098336
 Sum of Mulliken charges =   0.00000

 Dipole moment (field-independent basis, Debye):
    X=             -0.5983    Y=             -2.4715    Z=              0.0000  Tot=              2.5429
 Quadrupole moment (field-independent basis, Debye-Ang):
   XX=             -4.8503   YY=             -5.2974   ZZ=             -6.6238
   XY=             -0.8055   XZ=              0.0000   YZ=              0.0000

 Normal termination of Gaussian 09 at Tue Mar 17 13:43:19 2020.
