 Gaussian 09, Revision D.01,
 Gaussian 09:  ES64L-G09RevD.01 24-Apr-2013

 -----------
 #p HF/6-31G
 -----------

 --------
 chk calc
 --------
 Symbolic Z-matrix:
 Charge =  0 Multiplicity = 1

                         Standard orientation:
 ---------------------------------------------------------------------
 Center     Atomic      Atomic             Coordinates (Angstroms)
 Number     Number       Type             X           Y           Z
 ---------------------------------------------------------------------
      1          8           0        0.000000    0.166078    0.000000
      2          1           0        0.903390   -0.174137    0.000000
      3          1           0       -0.903390   -1.154485    0.000000
 ---------------------------------------------------------------------

 SCF Done:  E(RHF) =  -75.8488064817     A.U. after   11 cycles

 The electronic state is 1-A'.
 Alpha  occ. eigenvalues --  -20.60652  -1.28960  -0.62164  -0.50020  -0.47479
 Alpha virt. eigenvalues --    0.05427   0.25137   0.94681   1.12394   1.16248
 Alpha virt. eigenvalues --    1.22885   1.33959   1.58901

 Mulliken charges:
               1
     1  O   -0.645553
     2  H    0.400949
     3  H    0.244603
 Sum of Mulliken charges =   0.00000

 Dipole moment (field-independent basis, Debye):
    X=              0.8378    Y=             -2.4246    Z=              0.0000  Tot=              2.5653
 Quadrupole moment (field-independent basis, Debye-Ang):
   XX=             -4.2971   YY=             -5.3220   ZZ=             -7.7402
   XY=              1.4028   XZ=              0.0000   YZ=              0.0000

 Normal termination of Gaussian 09 at Tue Mar 17 13:43:24 2020.
