 Gaussian 09, Revision D.01,
 Gaussian 09:  ES64L-G09RevD.01 24-Apr-2013

 -----------
 #p HF/6-31G
 -----------

 --------
 chk calc
 --------
 Symbolic Z-matrix:
 Charge =  0 Multiplicity = 1

                         Standard orientation:
 ---------------------------------------------------------------------
 Center     Atomic      Atomic             Coordinates (Angstroms)
 Number     Number       Type             X           Y           Z
 ---------------------------------------------------------------------
      1          8           0        0.000000    0.113570    0.000000
      2          1           0        0.718325   -0.531308    0.000000
      3          1           0       -0.718325   -0.377254    0.000000
 ---------------------------------------------------------------------

 SCF Done:  E(RHF) =  -75.9745548372     A.U. after   10 cycles

 The electronic state is 1-A'.
 Alpha  occ. eigenvalues --  -20.55289  -1.38248  -0.73188  -0.56750  -0.50437
 Alpha virt. eigenvalues --    0.21041   0.31050   1.05736   1.16397   1.20533
 Alpha virt. eigenvalues --    1.26113   1.41570   1.69961

 Mulliken charges:
               1
     1  O   -0.771978
     2  H    0.392464
     3  H    0.379514
 Sum of Mulliken charges =   0.00000

 Dipole moment (field-independent basis, Debye):
    X=             -0.1260    Y=             -2.6226    Z=              0.0000  Tot=              2.6256
 Quadrupole moment (field-independent basis, Debye-Ang):
   XX=             -4.3278   YY=             -6.0788   ZZ=             -7.1141
   XY=             -0.2381   XZ=              0.0000   YZ=              0.0000

 Normal termination of Gaussian 09 at Tue Mar 17 13:43:21 2020.
