 Gaussian 09, Revision D.01,
 Gaussian 09:  ES64L-G09RevD.01 24-Apr-2013

 -----------
 #p HF/6-31G
 -----------

 --------
 chk calc
 --------
 Symbolic Z-matrix:
 Charge =  0 Multiplicity = 1

                         Standard orientation:
 ---------------------------------------------------------------------
 Center     Atomic      Atomic             Coordinates (Angstroms)
 Number     Number       Type             X           Y           Z
 ---------------------------------------------------------------------
      1          8           0        0.000000    0.000000    0.081593
      2          1           0        0.000000    0.874885   -0.326373
      3          1           0        0.000000   -0.874885   -0.326373
 ---------------------------------------------------------------------

 SCF Done:  E(RHF) =  -75.9764702365     A.U. after   10 cycles

 The electronic state is 1-A1.
 Alpha  occ. eigenvalues --  -20.53990  -1.32444  -0.74014  -0.51251  -0.48669
 Alpha virt. eigenvalues --    0.20097   0.30165   1.02616   1.17558   1.20022
 Alpha virt. eigenvalues --    1.23450   1.42729   1.64405

 Mulliken charges:
               1
     1  O   -0.881064
     2  H    0.440532
     3  H    0.440532
 Sum of Mulliken charges =   0.00000

 Dipole moment (field-independent basis, Debye):
    X=              0.0000    Y=              0.0000    Z=             -2.0980  Tot=              2.0980
 Quadrupole moment (field-independent basis, Debye-Ang):
   XX=             -7.2534   YY=             -2.9999   ZZ=             -6.7187
   XY=              0.0000   XZ=              0.0000   YZ=              0.0000

 Normal termination of Gaussian 09 at Tue Mar 17 12:44:04 2020.
