 Gaussian 09, Revision D.01,
 Gaussian 09:  ES64L-G09RevD.01 24-Apr-2013

 -----------
 #p HF/6-31G
 -----------

 --------
 chk calc
 --------
 Symbolic Z-matrix:
 Charge =  0 Multiplicity = 1

                         Standard orientation:
 ---------------------------------------------------------------------
 Center     Atomic      Atomic             Coordinates (Angstroms)
 Number     Number       Type             X           Y           Z
 ---------------------------------------------------------------------
      1          8           0        0.000000    0.000000    0.049969
      2          1           0        0.000000    0.932436   -0.199876
      3          1           0        0.000000   -0.932436   -0.199876
 ---------------------------------------------------------------------

 SCF Done:  E(RHF) =  -75.9578348555     A.U. after   10 cycles

 The electronic state is 1-A1.
 Alpha  occ. eigenvalues --  -20.52066  -1.30406  -0.75432  -0.48296  -0.47439
 Alpha virt. eigenvalues --    0.19356   0.30365   0.93623   1.18531   1.19617
 Alpha virt. eigenvalues --    1.32603   1.58356   1.63684

 Mulliken charges:
               1
     1  O   -0.967528
     2  H    0.483764
     3  H    0.483764
 Sum of Mulliken charges =   0.00000

 Dipole moment (field-independent basis, Debye):
    X=              0.0000    Y=              0.0000    Z=             -1.4563  Tot=              1.4563
 Quadrupole moment (field-independent basis, Debye-Ang):
   XX=             -7.2873   YY=             -2.1542   ZZ=             -7.0775
   XY=              0.0000   XZ=              0.0000   YZ=              0.0000

 Normal termination of Gaussian 09 at Tue Mar 17 12:44:07 2020.
