 Gaussian 09, Revision D.01,
 Gaussian 09:  ES64L-G09RevD.01 24-Apr-2013

 -----------
 #p HF/6-31G
 -----------

 --------
 chk calc
 --------
 Symbolic Z-matrix:
 Charge =  0 Multiplicity = 1

                         Standard orientation:
 ---------------------------------------------------------------------
 Center     Atomic      Atomic             Coordinates (Angstroms)
 Number     Number       Type             X           Y           Z
 ---------------------------------------------------------------------
      1          8           0        0.000000    0.000000    0.124100
      2          1           0        0.000000    0.739485   -0.496401
      3          1           0        0.000000   -0.739485   -0.496401
 ---------------------------------------------------------------------

 SCF Done:  E(RHF) =  -75.9815146935     A.U. after   10 cycles

 The electronic state is 1-A1.
 Alpha  occ. eigenvalues --  -20.56531  -1.35721  -0.69761  -0.56823  -0.50317
 Alpha virt. eigenvalues --    0.20057   0.29674   1.03104   1.16274   1.18864
 Alpha virt. eigenvalues --    1.22917   1.37274   1.71152

 Mulliken charges:
               1
     1  O   -0.780341
     2  H    0.390171
     3  H    0.390171
 Sum of Mulliken charges =   0.00000

 Dipole moment (field-independent basis, Debye):
    X=              0.0000    Y=              0.0000    Z=             -2.7077  Tot=              2.7077
 Quadrupole moment (field-independent basis, Debye-Ang):
   XX=             -7.2209   YY=             -4.4123   ZZ=             -6.0377
   XY=              0.0000   XZ=              0.0000   YZ=              0.0000

 Normal termination of Gaussian 09 at Tue Mar 17 12:44:01 2020.
