 Gaussian 09, Revision D.01,
 Gaussian 09:  ES64L-G09RevD.01 24-Apr-2013

 -----------
 #p HF/6-31G
 -----------

 --------
 chk calc
 --------
 Symbolic Z-matrix:
 Charge =  0 Multiplicity = 1

                         Standard orientation:
 ---------------------------------------------------------------------
 Center     Atomic      Atomic             Coordinates (Angstroms)
 Number     Number       Type             X           Y           Z
 ---------------------------------------------------------------------
      1          8           0        0.000000    0.000000    0.181422
      2          1           0        0.000000    0.330162   -0.725690
      3          1           0        0.000000   -0.330162   -0.725690
 ---------------------------------------------------------------------

 SCF Done:  E(RHF) =  -75.8033125335     A.U. after   10 cycles

 The electronic state is 1-A1.
 Alpha  occ. eigenvalues --  -20.59154  -1.45207  -0.72022  -0.56102  -0.52325
 Alpha virt. eigenvalues --    0.16598   0.31114   0.84887   1.14769   1.22707
 Alpha virt. eigenvalues --    1.22978   1.38320   1.53531

 Mulliken charges:
               1
     1  O   -0.566060
     2  H    0.283030
     3  H    0.283030
 Sum of Mulliken charges =   0.00000

 Dipole moment (field-independent basis, Debye):
    X=              0.0000    Y=              0.0000    Z=             -3.0906  Tot=              3.0906
 Quadrupole moment (field-independent basis, Debye-Ang):
   XX=             -7.1101   YY=             -6.7483   ZZ=             -4.6727
   XY=              0.0000   XZ=              0.0000   YZ=              0.0000

 Normal termination of Gaussian 09 at Tue Mar 17 12:43:55 2020.
