 Gaussian 09, Revision D.01,
 Gaussian 09:  ES64L-G09RevD.01 24-Apr-2013

 -----------
 #p HF/6-31G
 -----------

 --------
 chk calc
 --------
 Symbolic Z-matrix:
 Charge =  0 Multiplicity = 1

                         Standard orientation:
 ---------------------------------------------------------------------
 Center     Atomic      Atomic             Coordinates (Angstroms)
 Number     Number       Type             X           Y           Z
 ---------------------------------------------------------------------
      1          8           0        0.000000    0.000000    0.158150
      2          1           0        0.000000    0.553690   -0.632601
      3          1           0        0.000000   -0.553690   -0.632601
 ---------------------------------------------------------------------

 SCF Done:  E(RHF) =  -75.9316762219     A.U. after   10 cycles

 The electronic state is 1-A1.
 Alpha  occ. eigenvalues --  -20.58147  -1.39631  -0.63080  -0.63073  -0.51523
 Alpha virt. eigenvalues --    0.18215   0.29238   0.97983   1.15352   1.17975
 Alpha virt. eigenvalues --    1.25542   1.35179   1.71650

 Mulliken charges:
               1
     1  O   -0.689913
     2  H    0.344957
     3  H    0.344957
 Sum of Mulliken charges =   0.00000

 Dipole moment (field-independent basis, Debye):
    X=              0.0000    Y=              0.0000    Z=             -3.0777  Tot=              3.0777
 Quadrupole moment (field-independent basis, Debye-Ang):
   XX=             -7.2049   YY=             -5.8068   ZZ=             -5.3081
   XY=              0.0000   XZ=              0.0000   YZ=              0.0000

 Normal termination of Gaussian 09 at Tue Mar 17 12:43:58 2020.
