 Gaussian 09, Revision D.01,
 Gaussian 09:  ES64L-G09RevD.01 24-Apr-2013

 -----------
 #p HF/6-31G
 -----------

 --------
 chk calc
 --------
 Symbolic Z-matrix:
 Charge =  0 Multiplicity = 1

                         Standard orientation:
 ---------------------------------------------------------------------
 Center     Atomic      Atomic             Coordinates (Angstroms)
 Number     Number       Type             X           Y           Z
 ---------------------------------------------------------------------
      1          8           0        0.000000    0.000000    0.136518
      2          1           0        0.000000   -0.682591   -0.546073
      3          1           0        0.000000    0.682591   -0.546073
 ---------------------------------------------------------------------

 SCF Done:  E(RHF) =  -75.9718058823     A.U. after   10 cycles

 The electronic state is 1-A1.
 Alpha  occ. eigenvalues --  -20.57187  -1.36912  -0.67773  -0.58813  -0.50776
 Alpha virt. eigenvalues --    0.19610   0.29469   0.99222   1.15921   1.19586
 Alpha virt. eigenvalues --    1.26105   1.36469   1.74496

 Mulliken charges:
               1
     1  O   -0.751936
     2  H    0.375968
     3  H    0.375968
 Sum of Mulliken charges =   0.00000

 Dipole moment (field-independent basis, Debye):
    X=              0.0000    Y=              0.0000    Z=             -2.8556  Tot=              2.8556
 Quadrupole moment (field-independent basis, Debye-Ang):
   XX=             -7.2160   YY=             -4.8916   ZZ=             -5.7938
   XY=              0.0000   XZ=              0.0000   YZ=              0.0000

 Normal termination of Gaussian 09 at Tue Mar 17 12:44:00 2020.
