 Gaussian 09, Revision D.01,
 Gaussian 09:  ES64L-G09RevD.01 24-Apr-2013

 -----------
 #p HF/6-31G
 -----------

 --------
 chk calc
 --------
 Symbolic Z-matrix:
 Charge =  0 Multiplicity = 1

                         Standard orientation:
 ---------------------------------------------------------------------
 Center     Atomic      Atomic             Coordinates (Angstroms)
 Number     Number       Type             X           Y           Z
 ---------------------------------------------------------------------
      1          8           0        0.000000    0.000000    0.096533
      2          1           0        0.000000    0.835999   -0.386132
      3          1           0        0.000000   -0.835999   -0.386132
 ---------------------------------------------------------------------

 SCF Done:  E(RHF) =  -75.9827566822     A.U. after   10 cycles

 The electronic state is 1-A1.
 Alpha  occ. eigenvalues --  -20.54920  -1.33513  -0.72889  -0.53018  -0.49262
 Alpha virt. eigenvalues --    0.20290   0.30032   1.08715   1.15879   1.17094
 Alpha virt. eigenvalues --    1.20300   1.39822   1.65662

 Mulliken charges:
               1
     1  O   -0.843043
     2  H    0.421521
     3  H    0.421521
 Sum of Mulliken charges =   0.00000

 Dipole moment (field-independent basis, Debye):
    X=              0.0000    Y=              0.0000    Z=             -2.3357  Tot=              2.3357
 Quadrupole moment (field-independent basis, Debye-Ang):
   XX=             -7.2392   YY=             -3.4617   ZZ=             -6.5049
   XY=              0.0000   XZ=              0.0000   YZ=              0.0000

 Normal termination of Gaussian 09 at Tue Mar 17 12:44:03 2020.
