 Gaussian 09, Revision D.01,
 Gaussian 09:  ES64L-G09RevD.01 24-Apr-2013

 -----------
 #p HF/6-31G
 -----------

 --------
 chk calc
 --------
 Symbolic Z-matrix:
 Charge =  0 Multiplicity = 1

                         Standard orientation:
 ---------------------------------------------------------------------
 Center     Atomic      Atomic             Coordinates (Angstroms)
 Number     Number       Type             X           Y           Z
 ---------------------------------------------------------------------
      1          8           0        0.000000    0.000000    0.110738
      2          1           0        0.000000    0.790751   -0.442952
      3          1           0        0.000000   -0.790751   -0.442952
 ---------------------------------------------------------------------

 SCF Done:  E(RHF) =  -75.9848601442     A.U. after   10 cycles

 The electronic state is 1-A1.
 Alpha  occ. eigenvalues --  -20.55772  -1.34598  -0.71470  -0.54888  -0.49812
 Alpha virt. eigenvalues --    0.20285   0.29868   1.08779   1.14955   1.16665
 Alpha virt. eigenvalues --    1.20824   1.38292   1.67892

 Mulliken charges:
               1
     1  O   -0.809924
     2  H    0.404962
     3  H    0.404962
 Sum of Mulliken charges =   0.00000

 Dipole moment (field-independent basis, Debye):
    X=              0.0000    Y=              0.0000    Z=             -2.5359  Tot=              2.5359
 Quadrupole moment (field-independent basis, Debye-Ang):
   XX=             -7.2283   YY=             -3.9340   ZZ=             -6.2763
   XY=              0.0000   XZ=              0.0000   YZ=              0.0000

 Normal termination of Gaussian 09 at Tue Mar 17 12:44:02 2020.
