 Gaussian 09, Revision D.01,
 Gaussian 09:  ES64L-G09RevD.01 24-Apr-2013

 -----------
 #p HF/6-31G
 -----------

 --------
 chk calc
 --------
 Symbolic Z-matrix:
 Charge =  0 Multiplicity = 1

                         Standard orientation:
 ---------------------------------------------------------------------
 Center     Atomic      Atomic             Coordinates (Angstroms)
 Number     Number       Type             X           Y           Z
 ---------------------------------------------------------------------
      1          8           0        0.000000    0.000000    0.147897
      2          1           0        0.000000    0.620501   -0.591588
      3          1           0        0.000000   -0.620501   -0.591588
 ---------------------------------------------------------------------

 SCF Done:  E(RHF) =  -75.9552306239     A.U. after   10 cycles

 The electronic state is 1-A1.
 Alpha  occ. eigenvalues --  -20.57729  -1.38204  -0.65530  -0.60877  -0.51182
 Alpha virt. eigenvalues --    0.18974   0.29297   0.97389   1.15610   1.19424
 Alpha virt. eigenvalues --    1.27114   1.35774   1.75432

 Mulliken charges:
               1
     1  O   -0.722287
     2  H    0.361144
     3  H    0.361144
 Sum of Mulliken charges =   0.00000

 Dipole moment (field-independent basis, Debye):
    X=              0.0000    Y=              0.0000    Z=             -2.9798  Tot=              2.9798
 Quadrupole moment (field-independent basis, Debye-Ang):
   XX=             -7.2117   YY=             -5.3621   ZZ=             -5.5492
   XY=              0.0000   XZ=              0.0000   YZ=              0.0000

 Normal termination of Gaussian 09 at Tue Mar 17 12:43:59 2020.
