 Gaussian 09, Revision D.01,
 Gaussian 09:  ES64L-G09RevD.01 24-Apr-2013

 -----------
 #p HF/6-31G
 -----------

 --------
 chk calc
 --------
 Symbolic Z-matrix:
 Charge =  0 Multiplicity = 1

                         Standard orientation:
 ---------------------------------------------------------------------
 Center     Atomic      Atomic             Coordinates (Angstroms)
 Number     Number       Type             X           Y           Z
 ---------------------------------------------------------------------
      1          8           0        0.000000    0.000000    0.016827
      2          1           0        0.000000    0.961656   -0.067307
      3          1           0        0.000000   -0.961656   -0.067307
 ---------------------------------------------------------------------

 SCF Done:  E(RHF) =  -75.9431534646     A.U. after   10 cycles

 The electronic state is 1-A1.
 Alpha  occ. eigenvalues --  -20.50685  -1.28985  -0.75976  -0.46629  -0.46544
 Alpha virt. eigenvalues --    0.18723   0.30496   0.89492   1.19244   1.19381
 Alpha virt. eigenvalues --    1.34820   1.63869   1.76795

 Mulliken charges:
               1
     1  O   -1.035398
     2  H    0.517699
     3  H    0.517699
 Sum of Mulliken charges =   0.00000

 Dipole moment (field-independent basis, Debye):
    X=              0.0000    Y=              0.0000    Z=             -0.5352  Tot=              0.5352
 Quadrupole moment (field-independent basis, Debye-Ang):
   XX=             -7.3134   YY=             -1.5988   ZZ=             -7.2887
   XY=              0.0000   XZ=              0.0000   YZ=              0.0000

 Normal termination of Gaussian 09 at Tue Mar 17 12:44:08 2020.
