 Gaussian 09, Revision D.01,
 Gaussian 09:  ES64L-G09RevD.01 24-Apr-2013

 -----------
 #p HF/6-31G
 -----------

 --------
 chk calc
 --------
 Symbolic Z-matrix:
 Charge =  0 Multiplicity = 1

                         Standard orientation:
 ---------------------------------------------------------------------
 Center     Atomic      Atomic             Coordinates (Angstroms)
 Number     Number       Type             X           Y           Z
 ---------------------------------------------------------------------
      1          8           0        0.000000    0.000000    0.066032
      2          1           0        0.000000    0.907112   -0.264130
      3          1           0        0.000000   -0.907112   -0.264130
 ---------------------------------------------------------------------

 SCF Done:  E(RHF) =  -75.9675655274     A.U. after   10 cycles

 The electronic state is 1-A1.
 Alpha  occ. eigenvalues --  -20.53016  -1.31395  -0.74854  -0.49651  -0.48049
 Alpha virt. eigenvalues --    0.19758   0.30273   0.97498   1.18048   1.19801
 Alpha virt. eigenvalues --    1.29416   1.48784   1.63832

 Mulliken charges:
               1
     1  O   -0.923552
     2  H    0.461776
     3  H    0.461776
 Sum of Mulliken charges =   0.00000

 Dipole moment (field-independent basis, Debye):
    X=              0.0000    Y=              0.0000    Z=             -1.8096  Tot=              1.8096
 Quadrupole moment (field-independent basis, Debye-Ang):
   XX=             -7.2701   YY=             -2.5577   ZZ=             -6.9120
   XY=              0.0000   XZ=              0.0000   YZ=              0.0000

 Normal termination of Gaussian 09 at Tue Mar 17 12:44:06 2020.
