 Gaussian 09, Revision D.01,
 Gaussian 09:  ES64L-G09RevD.01 24-Apr-2013

 -----------
 #p HF/6-31G
 -----------

 --------
 chk calc
 --------
 Symbolic Z-matrix:
 Charge =  0 Multiplicity = 1

                         Standard orientation:
 ---------------------------------------------------------------------
 Center     Atomic      Atomic             Coordinates (Angstroms)
 Number     Number       Type             X           Y           Z
 ---------------------------------------------------------------------
      1          8           0        0.000000    0.000000    0.167200
      2          1           0        0.000000    0.482664   -0.668799
      3          1           0        0.000000   -0.482664   -0.668799
 ---------------------------------------------------------------------

 SCF Done:  E(RHF) =  -75.9010136256     A.U. after   10 cycles

 The electronic state is 1-A1.
 Alpha  occ. eigenvalues --  -20.58454  -1.41235  -0.65516  -0.60536  -0.51794
 Alpha virt. eigenvalues --    0.17446   0.29416   1.01725   1.11916   1.15152
 Alpha virt. eigenvalues --    1.23599   1.34749   1.64407

 Mulliken charges:
               1
     1  O   -0.654471
     2  H    0.327235
     3  H    0.327235
 Sum of Mulliken charges =   0.00000

 Dipole moment (field-independent basis, Debye):
    X=              0.0000    Y=              0.0000    Z=             -3.1426  Tot=              3.1426
 Quadrupole moment (field-independent basis, Debye-Ang):
   XX=             -7.1913   YY=             -6.2027   ZZ=             -5.0754
   XY=              0.0000   XZ=              0.0000   YZ=              0.0000

 Normal termination of Gaussian 09 at Tue Mar 17 12:43:57 2020.
