 Gaussian 09, Revision D.01,
 Gaussian 09:  ES64L-G09RevD.01 24-Apr-2013

 -----------
 #p HF/6-31G
 -----------

 --------
 chk calc
 --------
 Symbolic Z-matrix:
 Charge =  0 Multiplicity = 1

                         Standard orientation:
 ---------------------------------------------------------------------
 Center     Atomic      Atomic             Coordinates (Angstroms)
 Number     Number       Type             X           Y           Z
 ---------------------------------------------------------------------
      1          8           0        0.000000    0.000000    0.033526
      2          1           0        0.000000    0.950663   -0.134102
      3          1           0        0.000000   -0.950663   -0.134102
 ---------------------------------------------------------------------

 SCF Done:  E(RHF) =  -75.9491423515     A.U. after   10 cycles

 The electronic state is 1-A1.
 Alpha  occ. eigenvalues --  -20.51247  -1.29563  -0.75790  -0.47268  -0.46910
 Alpha virt. eigenvalues --    0.18983   0.30442   0.90991   1.18952   1.19473
 Alpha virt. eigenvalues --    1.34110   1.63752   1.68765

 Mulliken charges:
               1
     1  O   -1.007259
     2  H    0.503630
     3  H    0.503630
 Sum of Mulliken charges =   0.00000

 Dipole moment (field-independent basis, Debye):
    X=              0.0000    Y=              0.0000    Z=             -1.0294  Tot=              1.0294
 Quadrupole moment (field-independent basis, Debye-Ang):
   XX=             -7.3027   YY=             -1.8214   ZZ=             -7.2062
   XY=              0.0000   XZ=              0.0000   YZ=              0.0000

 Normal termination of Gaussian 09 at Tue Mar 17 12:44:07 2020.
