 Gaussian 09, Revision D.01,
 Gaussian 09:  ES64L-G09RevD.01 24-Apr-2013

 -----------
 #p HF/6-31G
 -----------

 --------
 chk calc
 --------
 Symbolic Z-matrix:
 Charge =  0 Multiplicity = 1

                         Standard orientation:
 ---------------------------------------------------------------------
 Center     Atomic      Atomic             Coordinates (Angstroms)
 Number     Number       Type             X           Y           Z
 ---------------------------------------------------------------------
      1          8           0        0.000000    0.000000    0.174977
      2          1           0        0.000000    0.407966   -0.699908
      3          1           0        0.000000   -0.407966   -0.699908
 ---------------------------------------------------------------------

 SCF Done:  E(RHF) =  -75.8614230330     A.U. after   10 cycles

 The electronic state is 1-A1.
 Alpha  occ. eigenvalues --  -20.58727  -1.43071  -0.68407  -0.58105  -0.52028
 Alpha virt. eigenvalues --    0.16838   0.29996   0.99571   1.09926   1.14985
 Alpha virt. eigenvalues --    1.23038   1.34818   1.57746

 Mulliken charges:
               1
     1  O   -0.614775
     2  H    0.307388
     3  H    0.307388
 Sum of Mulliken charges =   0.00000

 Dipole moment (field-independent basis, Debye):
    X=              0.0000    Y=              0.0000    Z=             -3.1579  Tot=              3.1579
 Quadrupole moment (field-independent basis, Debye-Ang):
   XX=             -7.1634   YY=             -6.5240   ZZ=             -4.8588
   XY=              0.0000   XZ=              0.0000   YZ=              0.0000

 Normal termination of Gaussian 09 at Tue Mar 17 12:43:56 2020.
