 Gaussian 09, Revision D.01,
 Gaussian 09:  ES64L-G09RevD.01 24-Apr-2013

 --------------
 #p M062X/6-31G
 --------------

 --------
 chk calc
 --------
 Symbolic Z-matrix:
 Charge =  1 Multiplicity = 1

                         Standard orientation:
 ---------------------------------------------------------------------
 Center     Atomic      Atomic             Coordinates (Angstroms)
 Number     Number       Type             X           Y           Z
 ---------------------------------------------------------------------
      1          6           0       -4.384324   -0.806294    0.380891
      2          1           0       -5.296037   -1.392840    0.491468
      3          1           0       -3.677739   -1.380744   -0.222741
      4          1           0        2.308290   -2.256874   -0.758050
      5          1           0       -4.654197    0.131941   -0.112195
      6          1           0       -3.982899   -0.625133    1.381739
      7          6           0        1.648506    0.269128   -0.984576
      8          6           0        0.429672    1.178830   -0.748434
      9          6           0       -0.765764    0.293772   -0.428866
     10          7           0        0.657110    2.099729    0.381571
     11          8           0       -0.703458   -1.560842   -0.618787
     12          8           0       -1.813040    1.019266   -0.001370
     13          6           0        1.933141   -0.584393    0.217357
     14          1           0        2.535156    0.876855   -1.200846
     15          1           0        1.457693   -0.370650   -1.848677
     16          1           0        0.204048    1.708994   -1.683274
     17          1           0        1.466255    0.908074    1.445676
     18          1           0       -0.219304    2.441413    0.774113
     19          1           0       -2.627589    0.498922    0.183332
     20          7           0        1.830979   -0.078877    1.407581
     21          8           0        2.342108   -1.837389    0.123398
     22          1           0        1.269605    2.878510    0.150101
     23          1           0        2.027829   -0.638959    2.231118
 ---------------------------------------------------------------------

 SCF Done:  E(RM062X) =  -532.738540229     A.U. after   23 cycles

 The electronic state is 1-A.
 Alpha  occ. eigenvalues --  -19.90264 -19.88015 -19.78649 -14.98573 -14.94315
 Alpha  occ. eigenvalues --  -10.89597 -10.89593 -10.79935 -10.75774 -10.63355
 Alpha  occ. eigenvalues --   -1.42449  -1.41509  -1.25528  -1.19978  -1.10845
 Alpha  occ. eigenvalues --   -1.06891  -0.99553  -0.93486  -0.90446  -0.88533
 Alpha  occ. eigenvalues --   -0.84711  -0.79530  -0.77293  -0.75486  -0.74216
 Alpha  occ. eigenvalues --   -0.73110  -0.72077  -0.69414  -0.66444  -0.64441
 Alpha  occ. eigenvalues --   -0.63528  -0.62033  -0.57429  -0.57081  -0.56556
 Alpha  occ. eigenvalues --   -0.56145  -0.53549  -0.50628  -0.46320  -0.45427
 Alpha virt. eigenvalues --   -0.21187  -0.16090  -0.12545  -0.06060  -0.04485
 Alpha virt. eigenvalues --   -0.02432  -0.01188   0.00761   0.01400   0.03957
 Alpha virt. eigenvalues --    0.05358   0.05868   0.07007   0.08013   0.09713

 Mulliken charges:
               1
     1  C   -0.708858
     2  H    0.220249
     3  H    0.195819
     4  H    0.466723
     5  H    0.161783
     6  H    0.161254
     7  C   -0.323207
     8  C   -0.149997
     9  C    0.475360
    10  N   -0.791085
    11  O   -0.411505
    12  O   -0.579396
    13  C    0.616288
    14  H    0.255258
    15  H    0.243709
    16  H    0.279866
    17  H    0.459293
    18  H    0.382415
    19  H    0.495074
    20  N   -0.692811
    21  O   -0.542785
    22  H    0.366419
    23  H    0.420135
 Sum of Mulliken charges =   1.00000

 Dipole moment (field-independent basis, Debye):
    X=              4.2904    Y=              4.1930    Z=              0.0298  Tot=              5.9992
 Quadrupole moment (field-independent basis, Debye-Ang):
   XX=            -31.8480   YY=            -48.6978   ZZ=            -48.7222
   XY=             -2.6591   XZ=             -4.0559   YZ=              0.1604

 Normal termination of Gaussian 09 at Wed Mar 11 15:25:33 2020.
