 Gaussian 09, Revision D.01,
 Gaussian 09:  ES64L-G09RevD.01 24-Apr-2013

 --------------
 #p M062X/6-31G
 --------------

 --------
 chk calc
 --------
 Symbolic Z-matrix:
 Charge =  1 Multiplicity = 1

                         Standard orientation:
 ---------------------------------------------------------------------
 Center     Atomic      Atomic             Coordinates (Angstroms)
 Number     Number       Type             X           Y           Z
 ---------------------------------------------------------------------
      1          6           0       -4.368873   -0.943337    0.320899
      2          1           0       -5.273045   -1.546554    0.398918
      3          1           0       -3.654597   -1.475750   -0.311536
      4          1           0        2.342519   -2.245481   -0.884955
      5          1           0       -4.650473    0.016287   -0.121902
      6          1           0       -3.970422   -0.810593    1.330490
      7          6           0        1.650482    0.280349   -0.977572
      8          6           0        0.419919    1.160521   -0.694927
      9          6           0       -0.764246    0.244484   -0.424469
     10          7           0        0.634815    2.022792    0.482783
     11          8           0       -0.728277   -0.969896   -0.602852
     12          8           0       -1.821016    0.932733    0.039676
     13          6           0        1.945319   -0.632235    0.177598
     14          1           0        2.529385    0.910023   -1.160040
     15          1           0        1.468433   -0.314909   -1.874746
     16          1           0        0.188077    1.736771   -1.600517
     17          1           0        1.458547    0.786628    1.483004
     18          1           0       -0.246156    2.331853    0.891818
     19          1           0       -2.628928    0.392914    0.195366
     20          7           0        1.835942   -0.192148    1.392906
     21          8           0        2.370405   -1.873117    0.017613
     22          1           0        1.237398    2.820564    0.293885
     23          1           0        2.039464   -0.792712    2.185721
 ---------------------------------------------------------------------

 SCF Done:  E(RM062X) =  -532.923517248     A.U. after   17 cycles

 The electronic state is 1-A.
 Alpha  occ. eigenvalues --  -19.88673 -19.84111 -19.80611 -14.98793 -14.92956
 Alpha  occ. eigenvalues --  -10.89798 -10.86251 -10.78011 -10.75561 -10.63092
 Alpha  occ. eigenvalues --   -1.43120  -1.40329  -1.31321  -1.25641  -1.18459
 Alpha  occ. eigenvalues --   -1.06512  -0.97033  -0.93423  -0.90041  -0.86874
 Alpha  occ. eigenvalues --   -0.84294  -0.79467  -0.77248  -0.74115  -0.73565
 Alpha  occ. eigenvalues --   -0.73054  -0.72444  -0.69292  -0.66412  -0.64805
 Alpha  occ. eigenvalues --   -0.63789  -0.62020  -0.60750  -0.57110  -0.56889
 Alpha  occ. eigenvalues --   -0.56552  -0.55952  -0.54225  -0.51668  -0.49382
 Alpha virt. eigenvalues --   -0.16451  -0.12314  -0.06879  -0.03348  -0.01215
 Alpha virt. eigenvalues --   -0.00553   0.00964   0.01627   0.04607   0.05006
 Alpha virt. eigenvalues --    0.06498   0.07326   0.07923   0.10616   0.11087

 Mulliken charges:
               1
     1  C   -0.698230
     2  H    0.214398
     3  H    0.179555
     4  H    0.465838
     5  H    0.168969
     6  H    0.162490
     7  C   -0.333252
     8  C   -0.110945
     9  C    0.553631
    10  N   -0.793798
    11  O   -0.411193
    12  O   -0.605577
    13  C    0.602269
    14  H    0.260031
    15  H    0.231673
    16  H    0.260760
    17  H    0.459189
    18  H    0.385695
    19  H    0.465031
    20  N   -0.687302
    21  O   -0.546055
    22  H    0.358035
    23  H    0.418788
 Sum of Mulliken charges =   1.00000

 Dipole moment (field-independent basis, Debye):
    X=              4.6944    Y=              1.9534    Z=             -0.2040  Tot=              5.0887
 Quadrupole moment (field-independent basis, Debye-Ang):
   XX=            -33.5207   YY=            -48.1902   ZZ=            -47.8906
   XY=             -0.9435   XZ=             -3.5568   YZ=              1.1227

 Normal termination of Gaussian 09 at Wed Mar 11 15:22:34 2020.
