 Gaussian 09, Revision D.01,
 Gaussian 09:  ES64L-G09RevD.01 24-Apr-2013

 ----------------------------------------------------------------------
 #p HF/6-31G guess=read scf=(xqc,maxcon=128,maxcyc=512,conver=8) freq=n
 oraman IOp(7/8=20000) IOp(1/10=10) IOp(1/18=10) IOp(2/15=3) IOp(2/12=1
 )
 ----------------------------------------------------------------------

 --------------------------------
 frequency calculation: 1 0 0 0 0
 --------------------------------
 Symbolic Z-matrix:
 Charge =  0 Multiplicity = 1

                          Input orientation:
 ---------------------------------------------------------------------
 Center     Atomic      Atomic             Coordinates (Angstroms)
 Number     Number       Type             X           Y           Z
 ---------------------------------------------------------------------
      1          8           0        0.090322   -0.463790    0.114374
      2          6           0       -0.022063    0.521418    0.807996
      3          1           0       -0.082953    0.453908    1.885712
      4          1           0       -0.066756    1.514491    0.381907
 ---------------------------------------------------------------------

 SCF Done:  E(RHF) =  -113.808366542     A.U. after    1 cycles

 Alpha  occ. eigenvalues --  -20.59361 -11.34911  -1.42640  -0.87952  -0.70798
 Alpha  occ. eigenvalues --   -0.64327  -0.53144  -0.44265
 Alpha virt. eigenvalues --    0.12573   0.24549   0.32684   0.36947   0.73411
 Alpha virt. eigenvalues --    0.82503   0.85377   0.97933   1.15381   1.15713
 Alpha virt. eigenvalues --    1.23781   1.26782   1.38398   1.89137

 Mulliken charges:
               1
     1  O   -0.454299
     2  C    0.158893
     3  H    0.147703
     4  H    0.147703
 Sum of Mulliken charges =   0.00000

 Dipole moment (field-independent basis, Debye):
    X=             -0.2826    Y=              2.4777    Z=              1.7444  Tot=              3.0433
 Quadrupole moment (field-independent basis, Debye-Ang):
   XX=            -11.6607   YY=            -11.6931   ZZ=            -10.0484
   XY=              0.1057   XZ=             -0.0519   YZ=              0.9433

  Exact polarizability:   5.624  -0.962  16.175  -0.741   3.331  13.779
 Approx polarizability:   4.615  -0.973  14.513  -0.727   4.268  11.449

 Optimization completed.
    -- Stationary point found.
 Normal termination of Gaussian 09 at Fri Feb 28 18:56:25 2020.
