 Gaussian 09, Revision D.01,
 Gaussian 09:  ES64L-G09RevD.01 24-Apr-2013

 --------------
 #p M062X/6-31G
 --------------

 --------
 chk calc
 --------
 Symbolic Z-matrix:
 Charge =  1 Multiplicity = 1

                         Standard orientation:
 ---------------------------------------------------------------------
 Center     Atomic      Atomic             Coordinates (Angstroms)
 Number     Number       Type             X           Y           Z
 ---------------------------------------------------------------------
      1          6           0       -4.367781   -0.941493    0.335355
      2          1           0       -5.270764   -1.544614    0.426737
      3          1           0       -3.648829   -1.490584   -0.277210
      4          1           0        2.335418   -2.579870   -1.509536
      5          1           0       -4.649582    0.003687   -0.137374
      6          1           0       -3.974942   -0.777536    1.342556
      7          6           0        1.655030    0.259531   -0.968240
      8          6           0        0.420712    1.144341   -0.718347
      9          6           0       -0.762443    0.233514   -0.426699
     10          7           0        0.627214    2.042010    0.434145
     11          8           0       -0.722367   -0.985549   -0.568512
     12          8           0       -1.823415    0.932392    0.011239
     13          6           0        1.946236   -0.617307    0.215192
     14          1           0        2.533220    0.885905   -1.164942
     15          1           0        1.479215   -0.362772   -1.848139
     16          1           0        0.192081    1.692628   -1.641936
     17          1           0        1.448959    0.838575    1.475084
     18          1           0       -0.256682    2.360712    0.829236
     19          1           0       -2.630710    0.395229    0.178853
     20          7           0        1.829380   -0.141406    1.416224
     21          8           0        2.375397   -1.861232    0.094557
     22          1           0        1.228681    2.835449    0.224574
     23          1           0        2.030342   -0.717445    2.227672
 ---------------------------------------------------------------------

 SCF Done:  E(RM062X) =  -532.784104935     A.U. after   19 cycles

 The electronic state is 1-A.
 Alpha  occ. eigenvalues --  -19.88884 -19.83648 -19.80054 -14.97415 -14.92435
 Alpha  occ. eigenvalues --  -10.87603 -10.85706 -10.77336 -10.74703 -10.62926
 Alpha  occ. eigenvalues --   -1.39857  -1.37638  -1.30788  -1.22880  -1.17740
 Alpha  occ. eigenvalues --   -1.05487  -0.95988  -0.89920  -0.87722  -0.84415
 Alpha  occ. eigenvalues --   -0.81848  -0.77889  -0.73865  -0.73196  -0.72683
 Alpha  occ. eigenvalues --   -0.71277  -0.69030  -0.67897  -0.65448  -0.63553
 Alpha  occ. eigenvalues --   -0.62888  -0.60232  -0.57490  -0.56929  -0.56720
 Alpha  occ. eigenvalues --   -0.55764  -0.54407  -0.53555  -0.51090  -0.48712
 Alpha virt. eigenvalues --   -0.29303  -0.14476  -0.11775  -0.03140  -0.00620
 Alpha virt. eigenvalues --   -0.00104   0.01491   0.02343   0.04336   0.05613
 Alpha virt. eigenvalues --    0.07267   0.07802   0.08415   0.10135   0.11262

 Mulliken charges:
               1
     1  C   -0.697723
     2  H    0.213066
     3  H    0.179064
     4  H    0.438586
     5  H    0.168733
     6  H    0.163393
     7  C   -0.313848
     8  C   -0.112738
     9  C    0.552536
    10  N   -0.791187
    11  O   -0.411244
    12  O   -0.606838
    13  C    0.596238
    14  H    0.252634
    15  H    0.207397
    16  H    0.255450
    17  H    0.454727
    18  H    0.384001
    19  H    0.463726
    20  N   -0.701143
    21  O   -0.463825
    22  H    0.356512
    23  H    0.412484
 Sum of Mulliken charges =   1.00000

 Dipole moment (field-independent basis, Debye):
    X=              4.9008    Y=              0.9800    Z=             -1.4281  Tot=              5.1979
 Quadrupole moment (field-independent basis, Debye-Ang):
   XX=            -33.7184   YY=            -44.9484   ZZ=            -45.2229
   XY=             -3.2850   XZ=             -6.3281   YZ=              5.1254

 Normal termination of Gaussian 09 at Thu Mar 12 19:36:53 2020.
