 Gaussian 09, Revision D.01,
 Gaussian 09:  ES64L-G09RevD.01 24-Apr-2013

 --------------
 #p M062X/6-31G
 --------------

 --------
 chk calc
 --------
 Symbolic Z-matrix:
 Charge =  1 Multiplicity = 1

                         Standard orientation:
 ---------------------------------------------------------------------
 Center     Atomic      Atomic             Coordinates (Angstroms)
 Number     Number       Type             X           Y           Z
 ---------------------------------------------------------------------
      1          6           0       -4.368476   -0.942852    0.325606
      2          1           0       -5.272210   -1.546118    0.408184
      3          1           0       -3.652448   -1.481149   -0.299829
      4          1           0        2.338795   -2.365429   -1.123105
      5          1           0       -4.650144    0.011802   -0.127769
      6          1           0       -3.972126   -0.799146    1.334523
      7          6           0        1.652209    0.273150   -0.973920
      8          6           0        0.420240    1.155011   -0.702901
      9          6           0       -0.763558    0.240679   -0.425161
     10          7           0        0.631997    2.029781    0.466128
     11          8           0       -0.726059   -0.975466   -0.590744
     12          8           0       -1.821902    0.932701    0.029695
     13          6           0        1.945679   -0.626993    0.191317
     14          1           0        2.530854    0.901751   -1.161266
     15          1           0        1.472492   -0.331652   -1.865161
     16          1           0        0.189606    1.721514   -1.614926
     17          1           0        1.454978    0.804980    1.480841
     18          1           0       -0.250071    2.342234    0.870191
     19          1           0       -2.629591    0.393740    0.189462
     20          7           0        1.833501   -0.174310    1.401734
     21          8           0        2.372284   -1.869059    0.045165
     22          1           0        1.234171    2.826130    0.270054
     23          1           0        2.036059   -0.766336    2.201190
 ---------------------------------------------------------------------

 SCF Done:  E(RM062X) =  -532.881667568     A.U. after   17 cycles

 The electronic state is 1-A.
 Alpha  occ. eigenvalues --  -19.89494 -19.83934 -19.80401 -14.98220 -14.92737
 Alpha  occ. eigenvalues --  -10.88931 -10.86044 -10.77742 -10.75212 -10.63029
 Alpha  occ. eigenvalues --   -1.40265  -1.39800  -1.31117  -1.24222  -1.18160
 Alpha  occ. eigenvalues --   -1.06072  -0.96482  -0.90193  -0.89299  -0.85697
 Alpha  occ. eigenvalues --   -0.83377  -0.78678  -0.75770  -0.73814  -0.73170
 Alpha  occ. eigenvalues --   -0.72183  -0.71442  -0.68903  -0.66051  -0.64283
 Alpha  occ. eigenvalues --   -0.63468  -0.60852  -0.60317  -0.57039  -0.56826
 Alpha  occ. eigenvalues --   -0.55891  -0.55615  -0.54006  -0.51452  -0.49114
 Alpha virt. eigenvalues --   -0.17031  -0.15140  -0.12104  -0.03395  -0.00966
 Alpha virt. eigenvalues --   -0.00442   0.01150   0.01894   0.04326   0.05193
 Alpha virt. eigenvalues --    0.06817   0.07561   0.08057   0.10185   0.11143

 Mulliken charges:
               1
     1  C   -0.698028
     2  H    0.213888
     3  H    0.179316
     4  H    0.484091
     5  H    0.168901
     6  H    0.162853
     7  C   -0.328462
     8  C   -0.111434
     9  C    0.553424
    10  N   -0.792911
    11  O   -0.411770
    12  O   -0.606002
    13  C    0.618759
    14  H    0.257034
    15  H    0.220774
    16  H    0.258616
    17  H    0.457602
    18  H    0.384977
    19  H    0.464515
    20  N   -0.694870
    21  O   -0.554855
    22  H    0.357380
    23  H    0.416201
 Sum of Mulliken charges =   1.00000

 Dipole moment (field-independent basis, Debye):
    X=              4.7813    Y=              1.5683    Z=             -0.6649  Tot=              5.0757
 Quadrupole moment (field-independent basis, Debye-Ang):
   XX=            -33.6417   YY=            -47.0737   ZZ=            -47.1292
   XY=             -1.8678   XZ=             -4.6157   YZ=              2.5569

 Normal termination of Gaussian 09 at Thu Mar 12 19:31:56 2020.
