 Gaussian 09, Revision D.01,
 Gaussian 09:  ES64L-G09RevD.01 24-Apr-2013

 --------------
 #p M062X/6-31G
 --------------

 --------
 chk calc
 --------
 Symbolic Z-matrix:
 Charge =  1 Multiplicity = 1

                         Standard orientation:
 ---------------------------------------------------------------------
 Center     Atomic      Atomic             Coordinates (Angstroms)
 Number     Number       Type             X           Y           Z
 ---------------------------------------------------------------------
      1          6           0       -4.369257   -0.943599    0.317014
      2          1           0       -5.273857   -1.546684    0.390988
      3          1           0       -3.656734   -1.470562   -0.321929
      4          1           0        2.347507   -2.131319   -0.642709
      5          1           0       -4.650796    0.020519   -0.115957
      6          1           0       -3.968705   -0.820978    1.327053
      7          6           0        1.648725    0.286857   -0.981420
      8          6           0        0.419568    1.165426   -0.687882
      9          6           0       -0.764949    0.247944   -0.423944
     10          7           0        0.637600    2.016092    0.497666
     11          8           0       -0.730502   -0.964692   -0.614102
     12          8           0       -1.820145    0.932683    0.048893
     13          6           0        1.944940   -0.637107    0.164313
     14          1           0        2.527878    0.917429   -1.159533
     15          1           0        1.464348   -0.299545   -1.883934
     16          1           0        0.186512    1.750605   -1.587414
     17          1           0        1.462092    0.769557    1.484297
     18          1           0       -0.242270    2.322027    0.911393
     19          1           0       -2.628272    0.392153    0.200956
     20          7           0        1.838365   -0.208661    1.384022
     21          8           0        2.368514   -1.876790   -0.008467
     22          1           0        1.240582    2.815078    0.315288
     23          1           0        2.042858   -0.817038    2.170606
 ---------------------------------------------------------------------

 SCF Done:  E(RM062X) =  -532.758586335     A.U. after   17 cycles

 The electronic state is 1-A.
 Alpha  occ. eigenvalues --  -19.87036 -19.84288 -19.80813 -14.99479 -14.93209
 Alpha  occ. eigenvalues --  -10.90704 -10.86453 -10.78295 -10.75944 -10.63153
 Alpha  occ. eigenvalues --   -1.51301  -1.40530  -1.31527  -1.27749  -1.18793
 Alpha  occ. eigenvalues --   -1.07233  -1.01168  -0.96509  -0.90159  -0.87619
 Alpha  occ. eigenvalues --   -0.84917  -0.80350  -0.78083  -0.74431  -0.74164
 Alpha  occ. eigenvalues --   -0.73881  -0.72985  -0.69674  -0.66808  -0.65395
 Alpha  occ. eigenvalues --   -0.64136  -0.63086  -0.61012  -0.57624  -0.57157
 Alpha  occ. eigenvalues --   -0.56950  -0.56025  -0.54426  -0.51876  -0.49677
 Alpha virt. eigenvalues --   -0.17254  -0.12519  -0.04186  -0.01898  -0.01387
 Alpha virt. eigenvalues --   -0.00012   0.00772   0.01450   0.04518   0.05712
 Alpha virt. eigenvalues --    0.06135   0.07016   0.07849   0.10924   0.11142

 Mulliken charges:
               1
     1  C   -0.698431
     2  H    0.214910
     3  H    0.179843
     4  H    0.275562
     5  H    0.168995
     6  H    0.162122
     7  C   -0.333528
     8  C   -0.110936
     9  C    0.553424
    10  N   -0.794668
    11  O   -0.409619
    12  O   -0.605238
    13  C    0.564465
    14  H    0.263143
    15  H    0.243216
    16  H    0.263045
    17  H    0.460642
    18  H    0.386549
    19  H    0.465566
    20  N   -0.678557
    21  O   -0.351097
    22  H    0.358824
    23  H    0.421770
 Sum of Mulliken charges =   1.00000

 Dipole moment (field-independent basis, Debye):
    X=              4.5854    Y=              2.3721    Z=              0.2206  Tot=              5.1673
 Quadrupole moment (field-independent basis, Debye-Ang):
   XX=            -33.4108   YY=            -49.2196   ZZ=            -48.1910
   XY=              0.0878   XZ=             -2.5579   YZ=             -0.1034

 Normal termination of Gaussian 09 at Thu Mar 12 19:26:13 2020.
