 Gaussian 09, Revision D.01,
 Gaussian 09:  ES64L-G09RevD.01 24-Apr-2013

 --------------
 #p M062X/6-31G
 --------------

 --------
 chk calc
 --------
 Symbolic Z-matrix:
 Charge =  1 Multiplicity = 1

                         Standard orientation:
 ---------------------------------------------------------------------
 Center     Atomic      Atomic             Coordinates (Angstroms)
 Number     Number       Type             X           Y           Z
 ---------------------------------------------------------------------
      1          6           0       -4.369131   -0.943536    0.318219
      2          1           0       -5.273588   -1.546673    0.393486
      3          1           0       -3.656022   -1.472267   -0.318607
      4          1           0        2.345704   -2.168766   -0.723884
      5          1           0       -4.650689    0.019135   -0.117948
      6          1           0       -3.969279   -0.817631    1.328132
      7          6           0        1.649314    0.284763   -0.980115
      8          6           0        0.419688    1.163856   -0.690129
      9          6           0       -0.764713    0.246828   -0.424101
     10          7           0        0.636675    2.018292    0.492896
     11          8           0       -0.729760   -0.966386   -0.610445
     12          8           0       -1.820434    0.932707    0.045903
     13          6           0        1.945069   -0.635522    0.168694
     14          1           0        2.528385    0.915054   -1.159623
     15          1           0        1.465713   -0.304516   -1.880912
     16          1           0        0.187038    1.746146   -1.591639
     17          1           0        1.460913    0.775109    1.483958
     18          1           0       -0.243563    2.325240    0.905089
     19          1           0       -2.628490    0.392399    0.199126
     20          7           0        1.837559   -0.203299    1.386988
     21          8           0        2.369146   -1.875604    0.000067
     22          1           0        1.239525    2.816895    0.308416
     23          1           0        2.041727   -0.809149    2.175604
 ---------------------------------------------------------------------

 SCF Done:  E(RM062X) =  -532.868236535     A.U. after   17 cycles

 The electronic state is 1-A.
 Alpha  occ. eigenvalues --  -19.87517 -19.84229 -19.80747 -14.99237 -14.93121
 Alpha  occ. eigenvalues --  -10.90395 -10.86386 -10.78199 -10.75813 -10.63132
 Alpha  occ. eigenvalues --   -1.47686  -1.40465  -1.31458  -1.26996  -1.18679
 Alpha  occ. eigenvalues --   -1.06925  -0.99117  -0.96128  -0.90125  -0.87408
 Alpha  occ. eigenvalues --   -0.84729  -0.80065  -0.77858  -0.74321  -0.73937
 Alpha  occ. eigenvalues --   -0.73625  -0.72828  -0.69546  -0.66670  -0.65191
 Alpha  occ. eigenvalues --   -0.64011  -0.62753  -0.60927  -0.57283  -0.57113
 Alpha  occ. eigenvalues --   -0.56930  -0.56001  -0.54361  -0.51808  -0.49576
 Alpha virt. eigenvalues --   -0.16977  -0.12451  -0.04310  -0.02279  -0.01365
 Alpha virt. eigenvalues --   -0.00318   0.00839   0.01484   0.04605   0.05406
 Alpha virt. eigenvalues --    0.06259   0.07126   0.07871   0.10920   0.11147

 Mulliken charges:
               1
     1  C   -0.698365
     2  H    0.214740
     3  H    0.179744
     4  H    0.365942
     5  H    0.168992
     6  H    0.162242
     7  C   -0.333697
     8  C   -0.110860
     9  C    0.553542
    10  N   -0.794374
    11  O   -0.410261
    12  O   -0.605342
    13  C    0.576081
    14  H    0.262101
    15  H    0.239422
    16  H    0.262272
    17  H    0.460167
    18  H    0.386249
    19  H    0.465386
    20  N   -0.681437
    21  O   -0.441813
    22  H    0.358546
    23  H    0.420722
 Sum of Mulliken charges =   1.00000

 Dipole moment (field-independent basis, Debye):
    X=              4.6249    Y=              2.2293    Z=              0.0865  Tot=              5.1349
 Quadrupole moment (field-independent basis, Debye-Ang):
   XX=            -33.4408   YY=            -48.8880   ZZ=            -48.1517
   XY=             -0.2687   XZ=             -2.8765   YZ=              0.2723

 Normal termination of Gaussian 09 at Thu Mar 12 19:27:10 2020.
