 Gaussian 09, Revision D.01,
 Gaussian 09:  ES64L-G09RevD.01 24-Apr-2013

 --------------
 #p M062X/6-31G
 --------------

 --------
 chk calc
 --------
 Symbolic Z-matrix:
 Charge =  1 Multiplicity = 1

                         Standard orientation:
 ---------------------------------------------------------------------
 Center     Atomic      Atomic             Coordinates (Angstroms)
 Number     Number       Type             X           Y           Z
 ---------------------------------------------------------------------
      1          6           0       -4.367491   -0.940736    0.339949
      2          1           0       -5.270165   -1.543706    0.435297
      3          1           0       -3.647366   -1.494495   -0.267009
      4          1           0        2.335070   -2.671285   -1.659936
      5          1           0       -4.649352    0.000192   -0.141154
      6          1           0       -3.976062   -0.767947    1.346222
      7          6           0        1.656140    0.253487   -0.966101
      8          6           0        0.420878    1.139502   -0.725314
      9          6           0       -0.762007    0.230339   -0.427450
     10          7           0        0.625265    2.047078    0.419774
     11          8           0       -0.720889   -0.989856   -0.558849
     12          8           0       -1.824034    0.932152    0.003177
     13          6           0        1.946444   -0.613057    0.225110
     14          1           0        2.534140    0.878797   -1.166995
     15          1           0        1.481895   -0.376395   -1.840905
     16          1           0        0.193047    1.679760   -1.653819
     17          1           0        1.446522    0.853119    1.471950
     18          1           0       -0.259361    2.368492    0.811011
     19          1           0       -2.631165    0.395853    0.174317
     20          7           0        1.827710   -0.127054    1.421905
     21          8           0        2.376637   -1.857654    0.115597
     22          1           0        1.226441    2.839139    0.204238
     23          1           0        2.028036   -0.696034    2.238473
 ---------------------------------------------------------------------

 SCF Done:  E(RM062X) =  -532.753499041     A.U. after   20 cycles

 The electronic state is 1-A.
 Alpha  occ. eigenvalues --  -19.88340 -19.83540 -19.79921 -14.97117 -14.92325
 Alpha  occ. eigenvalues --  -10.87150 -10.85578 -10.77192 -10.74523 -10.62885
 Alpha  occ. eigenvalues --   -1.39737  -1.37043  -1.30663  -1.22491  -1.17590
 Alpha  occ. eigenvalues --   -1.05283  -0.95822  -0.89863  -0.87419  -0.84126
 Alpha  occ. eigenvalues --   -0.81443  -0.77665  -0.73563  -0.72881  -0.72493
 Alpha  occ. eigenvalues --   -0.70994  -0.68609  -0.67284  -0.65205  -0.63295
 Alpha  occ. eigenvalues --   -0.62656  -0.60085  -0.56887  -0.56679  -0.56110
 Alpha  occ. eigenvalues --   -0.55716  -0.54071  -0.53302  -0.50950  -0.48563
 Alpha virt. eigenvalues --   -0.32269  -0.14107  -0.11650  -0.03028  -0.00498
 Alpha virt. eigenvalues --    0.00039   0.01637   0.02519   0.04378   0.05768
 Alpha virt. eigenvalues --    0.07430   0.07873   0.08572   0.10184   0.11309

 Mulliken charges:
               1
     1  C   -0.697618
     2  H    0.212754
     3  H    0.179002
     4  H    0.427114
     5  H    0.168653
     6  H    0.163596
     7  C   -0.308699
     8  C   -0.113247
     9  C    0.552103
    10  N   -0.790453
    11  O   -0.410769
    12  O   -0.607170
    13  C    0.584983
    14  H    0.251183
    15  H    0.204136
    16  H    0.254342
    17  H    0.453532
    18  H    0.383641
    19  H    0.463442
    20  N   -0.702147
    21  O   -0.435814
    22  H    0.356196
    23  H    0.411239
 Sum of Mulliken charges =   1.00000

 Dipole moment (field-independent basis, Debye):
    X=              4.9399    Y=              0.7546    Z=             -1.7367  Tot=              5.2904
 Quadrupole moment (field-independent basis, Debye-Ang):
   XX=            -33.7183   YY=            -43.9956   ZZ=            -44.3072
   XY=             -3.8298   XZ=             -7.0107   YZ=              6.2198

 Normal termination of Gaussian 09 at Thu Mar 12 19:39:09 2020.
