 Gaussian 09, Revision D.01,
 Gaussian 09:  ES64L-G09RevD.01 24-Apr-2013

 --------------
 #p M062X/6-31G
 --------------

 --------
 chk calc
 --------
 Symbolic Z-matrix:
 Charge =  1 Multiplicity = 1

                         Standard orientation:
 ---------------------------------------------------------------------
 Center     Atomic      Atomic             Coordinates (Angstroms)
 Number     Number       Type             X           Y           Z
 ---------------------------------------------------------------------
      1          6           0       -4.368742   -0.943201    0.322375
      2          1           0       -5.272769   -1.546444    0.401856
      3          1           0       -3.653882   -1.477527   -0.307783
      4          1           0        2.341137   -2.284791   -0.964816
      5          1           0       -4.650364    0.014822   -0.123867
      6          1           0       -3.970991   -0.806898    1.331768
      7          6           0        1.651061    0.278028   -0.976333
      8          6           0        0.420029    1.158754   -0.697480
      9          6           0       -0.764015    0.243255   -0.424681
     10          7           0        0.633880    2.025091    0.477433
     11          8           0       -0.727537   -0.971712   -0.598914
     12          8           0       -1.821310    0.932732    0.036436
     13          6           0        1.945441   -0.630531    0.182122
     14          1           0        2.529879    0.907364   -1.160368
     15          1           0        1.469788   -0.320334   -1.871598
     16          1           0        0.188591    1.731849   -1.605173
     17          1           0        1.457360    0.792600    1.482383
     18          1           0       -0.247457    2.335252    0.884843
     19          1           0       -2.629148    0.393183    0.193434
     20          7           0        1.835131   -0.186353    1.395857
     21          8           0        2.371033   -1.871810    0.026630
     22          1           0        1.236327    2.822412    0.286218
     23          1           0        2.038331   -0.784154    2.190839
 ---------------------------------------------------------------------

 SCF Done:  E(RM062X) =  -532.916712535     A.U. after   17 cycles

 The electronic state is 1-A.
 Alpha  occ. eigenvalues --  -19.89092 -19.84052 -19.80541 -14.98590 -14.92879
 Alpha  occ. eigenvalues --  -10.89505 -10.86182 -10.77919 -10.75440 -10.63071
 Alpha  occ. eigenvalues --   -1.41748  -1.40252  -1.31252  -1.25088  -1.18354
 Alpha  occ. eigenvalues --   -1.06351  -0.96776  -0.91784  -0.89971  -0.86520
 Alpha  occ. eigenvalues --   -0.84030  -0.79176  -0.76824  -0.74014  -0.73416
 Alpha  occ. eigenvalues --   -0.72742  -0.72196  -0.69165  -0.66290  -0.64623
 Alpha  occ. eigenvalues --   -0.63683  -0.61622  -0.60651  -0.57085  -0.56868
 Alpha  occ. eigenvalues --   -0.56232  -0.55924  -0.54154  -0.51597  -0.49290
 Alpha virt. eigenvalues --   -0.16222  -0.12248  -0.09735  -0.03427  -0.01129
 Alpha virt. eigenvalues --   -0.00540   0.01026   0.01715   0.04483   0.05035
 Alpha virt. eigenvalues --    0.06610   0.07414   0.07960   0.10420   0.11100

 Mulliken charges:
               1
     1  C   -0.698162
     2  H    0.214227
     3  H    0.179468
     4  H    0.483952
     5  H    0.168950
     6  H    0.162614
     7  C   -0.332282
     8  C   -0.111070
     9  C    0.553603
    10  N   -0.793509
    11  O   -0.411489
    12  O   -0.605709
    13  C    0.611844
    14  H    0.259011
    15  H    0.227876
    16  H    0.260025
    17  H    0.458673
    18  H    0.385440
    19  H    0.464856
    20  N   -0.690095
    21  O   -0.563917
    22  H    0.357801
    23  H    0.417891
 Sum of Mulliken charges =   1.00000

 Dipole moment (field-independent basis, Debye):
    X=              4.7252    Y=              1.8210    Z=             -0.3569  Tot=              5.0765
 Quadrupole moment (field-independent basis, Debye-Ang):
   XX=            -33.5646   YY=            -47.8268   ZZ=            -47.6790
   XY=             -1.2625   XZ=             -3.9107   YZ=              1.5874

 Normal termination of Gaussian 09 at Thu Mar 12 19:30:00 2020.
