 Gaussian 09, Revision D.01,
 Gaussian 09:  ES64L-G09RevD.01 24-Apr-2013

 --------------
 #p M062X/6-31G
 --------------

 --------
 chk calc
 --------
 Symbolic Z-matrix:
 Charge =  1 Multiplicity = 1

                         Standard orientation:
 ---------------------------------------------------------------------
 Center     Atomic      Atomic             Coordinates (Angstroms)
 Number     Number       Type             X           Y           Z
 ---------------------------------------------------------------------
      1          6           0       -4.368340   -0.942638    0.327362
      2          1           0       -5.271926   -1.545898    0.411578
      3          1           0       -3.651728   -1.482994   -0.295623
      4          1           0        2.337835   -2.406803   -1.201494
      5          1           0       -4.650033    0.010245   -0.129708
      6          1           0       -3.972691   -0.795084    1.335999
      7          6           0        1.652779    0.270592   -0.972744
      8          6           0        0.420341    1.153031   -0.705771
      9          6           0       -0.763332    0.239331   -0.425430
     10          7           0        0.631050    2.032172    0.460165
     11          8           0       -0.725320   -0.977403   -0.586509
     12          8           0       -1.822201    0.932668    0.026191
     13          6           0        1.945794   -0.625155    0.195989
     14          1           0        2.531335    0.898794   -1.161837
     15          1           0        1.473840   -0.337549   -1.861867
     16          1           0        0.190108    1.716094   -1.620025
     17          1           0        1.453782    0.811392    1.479913
     18          1           0       -0.251384    2.345814    0.862505
     19          1           0       -2.629813    0.394027    0.187420
     20          7           0        1.832682   -0.168056    1.404658
     21          8           0        2.372908   -1.867608    0.054689
     22          1           0        1.233084    2.827995    0.261548
     23          1           0        2.034921   -0.757065    2.206420
 ---------------------------------------------------------------------

 SCF Done:  E(RM062X) =  -532.860881064     A.U. after   17 cycles

 The electronic state is 1-A.
 Alpha  occ. eigenvalues --  -19.89504 -19.83875 -19.80331 -14.98048 -14.92672
 Alpha  occ. eigenvalues --  -10.88649 -10.85975 -10.77655 -10.75103 -10.63008
 Alpha  occ. eigenvalues --   -1.40135  -1.39251  -1.31049  -1.23883  -1.18069
 Alpha  occ. eigenvalues --   -1.05945  -0.96369  -0.90080  -0.88788  -0.85330
 Alpha  occ. eigenvalues --   -0.83017  -0.78477  -0.75237  -0.73710  -0.73064
 Alpha  occ. eigenvalues --   -0.71965  -0.70916  -0.68760  -0.65931  -0.64124
 Alpha  occ. eigenvalues --   -0.63356  -0.60625  -0.59928  -0.57017  -0.56805
 Alpha  occ. eigenvalues --   -0.55863  -0.55341  -0.53927  -0.51379  -0.49029
 Alpha virt. eigenvalues --   -0.19911  -0.15231  -0.12037  -0.03352  -0.00891
 Alpha virt. eigenvalues --   -0.00380   0.01214   0.01985   0.04299   0.05279
 Alpha virt. eigenvalues --    0.06914   0.07621   0.08119   0.10134   0.11166

 Mulliken charges:
               1
     1  C   -0.697963
     2  H    0.213720
     3  H    0.179251
     4  H    0.475497
     5  H    0.168872
     6  H    0.162967
     7  C   -0.325785
     8  C   -0.111662
     9  C    0.553286
    10  N   -0.792594
    11  O   -0.411781
    12  O   -0.606162
    13  C    0.617030
    14  H    0.256080
    15  H    0.217548
    16  H    0.257939
    17  H    0.457047
    18  H    0.384765
    19  H    0.464349
    20  N   -0.696737
    21  O   -0.538249
    22  H    0.357188
    23  H    0.415394
 Sum of Mulliken charges =   1.00000

 Dipole moment (field-independent basis, Debye):
    X=              4.8077    Y=              1.4463    Z=             -0.8178  Tot=              5.0867
 Quadrupole moment (field-independent basis, Debye-Ang):
   XX=            -33.6696   YY=            -46.6780   ZZ=            -46.8026
   XY=             -2.1606   XZ=             -4.9624   YZ=              3.0540

 Normal termination of Gaussian 09 at Thu Mar 12 19:32:53 2020.
