 Gaussian 09, Revision D.01,
 Gaussian 09:  ES64L-G09RevD.01 24-Apr-2013

 --------------
 #p M062X/6-31G
 --------------

 --------
 chk calc
 --------
 Symbolic Z-matrix:
 Charge =  1 Multiplicity = 1

                         Standard orientation:
 ---------------------------------------------------------------------
 Center     Atomic      Atomic             Coordinates (Angstroms)
 Number     Number       Type             X           Y           Z
 ---------------------------------------------------------------------
      1          6           0       -4.369382   -0.943640    0.315897
      2          1           0       -5.274122   -1.546665    0.388634
      3          1           0       -3.657444   -1.468881   -0.325112
      4          1           0        2.349449   -2.094450   -0.561130
      5          1           0       -4.650902    0.021877   -0.113958
      6          1           0       -3.968128   -0.824213    1.326041
      7          6           0        1.648133    0.288878   -0.982747
      8          6           0        0.419445    1.166935   -0.685733
      9          6           0       -0.765187    0.249024   -0.423806
     10          7           0        0.638522    2.013926    0.502250
     11          8           0       -0.731246   -0.963039   -0.617670
     12          8           0       -1.819857    0.932653    0.051803
     13          6           0        1.944809   -0.638656    0.159978
     14          1           0        2.527367    0.919714   -1.159521
     15          1           0        1.462979   -0.294723   -1.886917
     16          1           0        0.185983    1.754916   -1.583330
     17          1           0        1.463270    0.764142    1.484547
     18          1           0       -0.240981    2.318877    0.917483
     19          1           0       -2.628054    0.391916    0.202754
     20          7           0        1.839170   -0.213884    1.381054
     21          8           0        2.367880   -1.877940   -0.016846
     22          1           0        1.241635    2.813274    0.321904
     23          1           0        2.043987   -0.824712    2.165651
 ---------------------------------------------------------------------

 SCF Done:  E(RM062X) =  -532.523203129     A.U. after   17 cycles

 The electronic state is 1-A.
 Alpha  occ. eigenvalues --  -19.87122 -19.84346 -19.80878 -14.99740 -14.93301
 Alpha  occ. eigenvalues --  -10.91029 -10.86518 -10.78392 -10.76079 -10.63173
 Alpha  occ. eigenvalues --   -1.55879  -1.40593  -1.31598  -1.28487  -1.18909
 Alpha  occ. eigenvalues --   -1.07684  -1.03063  -0.96709  -0.90191  -0.87813
 Alpha  occ. eigenvalues --   -0.85093  -0.80624  -0.78280  -0.74567  -0.74407
 Alpha  occ. eigenvalues --   -0.74125  -0.73126  -0.69806  -0.66959  -0.65610
 Alpha  occ. eigenvalues --   -0.64283  -0.63395  -0.61097  -0.58001  -0.57182
 Alpha  occ. eigenvalues --   -0.56970  -0.56048  -0.54490  -0.51944  -0.49782
 Alpha virt. eigenvalues --   -0.17542  -0.12586  -0.04191  -0.01854  -0.01379
 Alpha virt. eigenvalues --    0.00250   0.00701   0.01455   0.04420   0.05971
 Alpha virt. eigenvalues --    0.06017   0.06899   0.07830   0.10904   0.11123

 Mulliken charges:
               1
     1  C   -0.698495
     2  H    0.215080
     3  H    0.179945
     4  H    0.158820
     5  H    0.168991
     6  H    0.162003
     7  C   -0.333426
     8  C   -0.111105
     9  C    0.553248
    10  N   -0.794975
    11  O   -0.408848
    12  O   -0.605141
    13  C    0.558227
    14  H    0.264194
    15  H    0.246869
    16  H    0.263832
    17  H    0.461125
    18  H    0.386869
    19  H    0.465748
    20  N   -0.675764
    21  O   -0.239216
    22  H    0.359121
    23  H    0.422897
 Sum of Mulliken charges =   1.00000

 Dipole moment (field-independent basis, Debye):
    X=              4.5418    Y=              2.5201    Z=              0.3483  Tot=              5.2058
 Quadrupole moment (field-independent basis, Debye-Ang):
   XX=            -33.3873   YY=            -49.5414   ZZ=            -48.1651
   XY=              0.4613   XZ=             -2.2514   YZ=             -0.4480

 Normal termination of Gaussian 09 at Thu Mar 12 19:25:17 2020.
