 Gaussian 09, Revision D.01,
 Gaussian 09:  ES64L-G09RevD.01 24-Apr-2013

 --------------
 #p M062X/6-31G
 --------------

 --------
 chk calc
 --------
 Symbolic Z-matrix:
 Charge =  1 Multiplicity = 1

                         Standard orientation:
 ---------------------------------------------------------------------
 Center     Atomic      Atomic             Coordinates (Angstroms)
 Number     Number       Type             X           Y           Z
 ---------------------------------------------------------------------
      1          6           0       -4.368203   -0.942396    0.329214
      2          1           0       -5.271640   -1.545640    0.415128
      3          1           0       -3.651007   -1.484860   -0.291261
      4          1           0        2.337017   -2.448910   -1.279353
      5          1           0       -4.649922    0.008657   -0.131637
      6          1           0       -3.973255   -0.790894    1.337540
      7          6           0        1.653345    0.267952   -0.971588
      8          6           0        0.420438    1.150976   -0.708749
      9          6           0       -0.763107    0.237941   -0.425719
     10          7           0        0.630098    2.034591    0.453989
     11          8           0       -0.724582   -0.979380   -0.582170
     12          8           0       -1.822501    0.932621    0.022595
     13          6           0        1.945908   -0.623270    0.200712
     14          1           0        2.531812    0.895732   -1.162489
     15          1           0        1.475186   -0.343607   -1.858521
     16          1           0        0.190607    1.710499   -1.625274
     17          1           0        1.452582    0.817956    1.478877
     18          1           0       -0.252701    2.349453    0.854571
     19          1           0       -2.630036    0.394321    0.185339
     20          7           0        1.831861   -0.161641    1.407571
     21          8           0        2.373531   -1.866103    0.064387
     22          1           0        1.231993    2.829861    0.252753
     23          1           0        2.033780   -0.747546    2.211685
 ---------------------------------------------------------------------

 SCF Done:  E(RM062X) =  -532.840172895     A.U. after   17 cycles

 The electronic state is 1-A.
 Alpha  occ. eigenvalues --  -19.89433 -19.83818 -19.80261 -14.97884 -14.92609
 Alpha  occ. eigenvalues --  -10.88374 -10.85907 -10.77572 -10.74998 -10.62988
 Alpha  occ. eigenvalues --   -1.40056  -1.38764  -1.30983  -1.23591  -1.17982
 Alpha  occ. eigenvalues --   -1.05824  -0.96266  -0.90025  -0.88411  -0.85030
 Alpha  occ. eigenvalues --   -0.82673  -0.78304  -0.74771  -0.73600  -0.72964
 Alpha  occ. eigenvalues --   -0.71773  -0.70353  -0.68602  -0.65812  -0.63973
 Alpha  occ. eigenvalues --   -0.63241  -0.60495  -0.59401  -0.56995  -0.56783
 Alpha  occ. eigenvalues --   -0.55837  -0.55081  -0.53845  -0.51306  -0.48948
 Alpha virt. eigenvalues --   -0.22756  -0.15065  -0.11971  -0.03304  -0.00820
 Alpha virt. eigenvalues --   -0.00313   0.01280   0.02075   0.04293   0.05364
 Alpha virt. eigenvalues --    0.07006   0.07674   0.08186   0.10111   0.11190

 Mulliken charges:
               1
     1  C   -0.697900
     2  H    0.213554
     3  H    0.179195
     4  H    0.465336
     5  H    0.168841
     6  H    0.163076
     7  C   -0.322822
     8  C   -0.111915
     9  C    0.553121
    10  N   -0.792262
    11  O   -0.411720
    12  O   -0.606327
    13  C    0.613098
    14  H    0.255160
    15  H    0.214581
    16  H    0.257286
    17  H    0.456484
    18  H    0.384564
    19  H    0.464188
    20  N   -0.698243
    21  O   -0.518928
    22  H    0.357009
    23  H    0.414622
 Sum of Mulliken charges =   1.00000

 Dipole moment (field-independent basis, Debye):
    X=              4.8327    Y=              1.3275    Z=             -0.9698  Tot=              5.1047
 Quadrupole moment (field-independent basis, Debye-Ang):
   XX=            -33.6910   YY=            -46.2698   ZZ=            -46.4458
   XY=             -2.4464   XZ=             -5.3048   YZ=              3.5579

 Normal termination of Gaussian 09 at Thu Mar 12 19:33:49 2020.
