 Gaussian 09, Revision D.01,
 Gaussian 09:  ES64L-G09RevD.01 24-Apr-2013

 --------------
 #p M062X/6-31G
 --------------

 --------
 chk calc
 --------
 Symbolic Z-matrix:
 Charge =  1 Multiplicity = 1

                         Standard orientation:
 ---------------------------------------------------------------------
 Center     Atomic      Atomic             Coordinates (Angstroms)
 Number     Number       Type             X           Y           Z
 ---------------------------------------------------------------------
      1          6           0       -4.369003   -0.943449    0.319513
      2          1           0       -5.273318   -1.546630    0.396129
      3          1           0       -3.655310   -1.473996   -0.315143
      4          1           0        2.344042   -2.206813   -0.804638
      5          1           0       -4.650581    0.017725   -0.119929
      6          1           0       -3.969851   -0.814170    1.329278
      7          6           0        1.649900    0.282594   -0.978833
      8          6           0        0.419805    1.162221   -0.692477
      9          6           0       -0.764478    0.245674   -0.424275
     10          7           0        0.635747    2.020526    0.487936
     11          8           0       -0.729018   -0.968120   -0.606695
     12          8           0       -1.820724    0.932724    0.042831
     13          6           0        1.945195   -0.633899    0.173122
     14          1           0        2.528887    0.912586   -1.159792
     15          1           0        1.467074   -0.309637   -1.877850
     16          1           0        0.187560    1.741536   -1.596006
     17          1           0        1.459731    0.780798    1.483528
     18          1           0       -0.244858    2.328515    0.898565
     19          1           0       -2.628709    0.392653    0.197263
     20          7           0        1.836752   -0.197796    1.389950
     21          8           0        2.369776   -1.874381    0.008760
     22          1           0        1.238464    2.818724    0.301283
     23          1           0        2.040596   -0.801042    2.180642
 ---------------------------------------------------------------------

 SCF Done:  E(RM062X) =  -532.912820125     A.U. after   17 cycles

 The electronic state is 1-A.
 Alpha  occ. eigenvalues --  -19.88123 -19.84171 -19.80679 -14.99009 -14.93037
 Alpha  occ. eigenvalues --  -10.90095 -10.86319 -10.78105 -10.75685 -10.63112
 Alpha  occ. eigenvalues --   -1.45028  -1.40399  -1.31389  -1.26282  -1.18568
 Alpha  occ. eigenvalues --   -1.06697  -0.97627  -0.95127  -0.90087  -0.87166
 Alpha  occ. eigenvalues --   -0.84524  -0.79768  -0.77587  -0.74216  -0.73737
 Alpha  occ. eigenvalues --   -0.73350  -0.72650  -0.69418  -0.66539  -0.64994
 Alpha  occ. eigenvalues --   -0.63897  -0.62397  -0.60841  -0.57142  -0.56910
 Alpha  occ. eigenvalues --   -0.56881  -0.55977  -0.54294  -0.51739  -0.49478
 Alpha virt. eigenvalues --   -0.16707  -0.12383  -0.04967  -0.02986  -0.01299
 Alpha virt. eigenvalues --   -0.00502   0.00902   0.01547   0.04657   0.05129
 Alpha virt. eigenvalues --    0.06381   0.07229   0.07894   0.10824   0.11103

 Mulliken charges:
               1
     1  C   -0.698298
     2  H    0.214570
     3  H    0.179648
     4  H    0.428319
     5  H    0.168983
     6  H    0.162365
     7  C   -0.333669
     8  C   -0.110869
     9  C    0.553611
    10  N   -0.794086
    11  O   -0.410784
    12  O   -0.605455
    13  C    0.589658
    14  H    0.261063
    15  H    0.235549
    16  H    0.261511
    17  H    0.459687
    18  H    0.385965
    19  H    0.465208
    20  N   -0.684376
    21  O   -0.506614
    22  H    0.358284
    23  H    0.419732
 Sum of Mulliken charges =   1.00000

 Dipole moment (field-independent basis, Debye):
    X=              4.6611    Y=              2.0898    Z=             -0.0554  Tot=              5.1084
 Quadrupole moment (field-independent basis, Debye-Ang):
   XX=            -33.4785   YY=            -48.5447   ZZ=            -48.0502
   XY=             -0.6120   XZ=             -3.2102   YZ=              0.6821

 Normal termination of Gaussian 09 at Thu Mar 12 19:28:07 2020.
