 Gaussian 09, Revision D.01,
 Gaussian 09:  ES64L-G09RevD.01 24-Apr-2013

 --------------
 #p M062X/6-31G
 --------------

 --------
 chk calc
 --------
 Symbolic Z-matrix:
 Charge =  1 Multiplicity = 1

                         Standard orientation:
 ---------------------------------------------------------------------
 Center     Atomic      Atomic             Coordinates (Angstroms)
 Number     Number       Type             X           Y           Z
 ---------------------------------------------------------------------
      1          6           0       -4.367923   -0.941824    0.333209
      2          1           0       -5.271059   -1.544999    0.422705
      3          1           0       -3.649557   -1.488656   -0.282057
      4          1           0        2.335808   -2.535419   -1.433396
      5          1           0       -4.649696    0.005379   -0.135471
      6          1           0       -3.974380   -0.782123    1.340819
      7          6           0        1.654471    0.262423   -0.969337
      8          6           0        0.420624    1.146633   -0.715036
      9          6           0       -0.762663    0.235034   -0.426353
     10          7           0        0.628180    2.039512    0.440984
     11          8           0       -0.723105   -0.983454   -0.573174
     12          8           0       -1.823108    0.932485    0.015121
     13          6           0        1.946128   -0.619348    0.210313
     14          1           0        2.532754    0.889290   -1.164042
     15          1           0        1.477873   -0.356217   -1.851660
     16          1           0        0.191593    1.698771   -1.636228
     17          1           0        1.450171    0.831545    1.476466
     18          1           0       -0.255350    2.356903    0.837942
     19          1           0       -2.630485    0.394922    0.181056
     20          7           0        1.830210   -0.148320    1.413356
     21          8           0        2.374775   -1.862918    0.084318
     22          1           0        1.229791    2.833591    0.234271
     23          1           0        2.031491   -0.727742    2.222312
 ---------------------------------------------------------------------

 SCF Done:  E(RM062X) =  -532.801513384     A.U. after   18 cycles

 The electronic state is 1-A.
 Alpha  occ. eigenvalues --  -19.89112 -19.83704 -19.80122 -14.97569 -14.92492
 Alpha  occ. eigenvalues --  -10.87850 -10.85772 -10.77412 -10.74799 -10.62946
 Alpha  occ. eigenvalues --   -1.39921  -1.37973  -1.30852  -1.23096  -1.17818
 Alpha  occ. eigenvalues --   -1.05595  -0.96077  -0.89951  -0.87907  -0.84588
 Alpha  occ. eigenvalues --   -0.82089  -0.78014  -0.74092  -0.73346  -0.72776
 Alpha  occ. eigenvalues --   -0.71432  -0.69368  -0.68180  -0.65570  -0.63688
 Alpha  occ. eigenvalues --   -0.63006  -0.60312  -0.58161  -0.56951  -0.56741
 Alpha  occ. eigenvalues --   -0.55788  -0.54612  -0.53661  -0.51162  -0.48789
 Alpha virt. eigenvalues --   -0.27446  -0.14671  -0.11839  -0.03196  -0.00685
 Alpha virt. eigenvalues --   -0.00175   0.01418   0.02254   0.04316   0.05531
 Alpha virt. eigenvalues --    0.07182   0.07763   0.08336   0.10117   0.11238

 Mulliken charges:
               1
     1  C   -0.697780
     2  H    0.213227
     3  H    0.179102
     4  H    0.446282
     5  H    0.168771
     6  H    0.163289
     7  C   -0.316733
     8  C   -0.112463
     9  C    0.552742
    10  N   -0.791554
    11  O   -0.411440
    12  O   -0.606667
    13  C    0.602110
    14  H    0.253434
    15  H    0.209490
    16  H    0.256041
    17  H    0.455323
    18  H    0.384185
    19  H    0.463876
    20  N   -0.700397
    21  O   -0.480678
    22  H    0.356674
    23  H    0.413164
 Sum of Mulliken charges =   1.00000

 Dipole moment (field-independent basis, Debye):
    X=              4.8792    Y=              1.0948    Z=             -1.2745  Tot=              5.1604
 Quadrupole moment (field-independent basis, Debye-Ang):
   XX=            -33.7144   YY=            -45.4051   ZZ=            -45.6533
   XY=             -3.0077   XZ=             -5.9865   YZ=              4.5926

 Normal termination of Gaussian 09 at Thu Mar 12 19:35:47 2020.
