 Gaussian 09, Revision D.01,
 Gaussian 09:  ES64L-G09RevD.01 24-Apr-2013

 --------------
 #p M062X/6-31G
 --------------

 --------
 chk calc
 --------
 Symbolic Z-matrix:
 Charge =  1 Multiplicity = 1

                         Standard orientation:
 ---------------------------------------------------------------------
 Center     Atomic      Atomic             Coordinates (Angstroms)
 Number     Number       Type             X           Y           Z
 ---------------------------------------------------------------------
      1          6           0       -4.368064   -0.942125    0.331163
      2          1           0       -5.271351   -1.545341    0.418836
      3          1           0       -3.650283   -1.486748   -0.286740
      4          1           0        2.336341   -2.491774   -1.356661
      5          1           0       -4.649809    0.007035   -0.133558
      6          1           0       -3.973818   -0.786575    1.339147
      7          6           0        1.653910    0.265229   -0.970453
      8          6           0        0.420533    1.148844   -0.711837
      9          6           0       -0.762884    0.236509   -0.426026
     10          7           0        0.629141    2.037038    0.447597
     11          8           0       -0.723844   -0.981397   -0.577725
     12          8           0       -1.822804    0.932561    0.018905
     13          6           0        1.946019   -0.621334    0.205487
     14          1           0        2.532285    0.892565   -1.163224
     15          1           0        1.476530   -0.349829   -1.855119
     16          1           0        0.191102    1.704727   -1.630675
     17          1           0        1.451378    0.824672    1.477729
     18          1           0       -0.254023    2.353150    0.846385
     19          1           0       -2.630260    0.394619    0.183218
     20          7           0        1.831037   -0.155064    1.410471
     21          8           0        2.374154   -1.864540    0.074262
     22          1           0        1.230895    2.831728    0.243662
     23          1           0        2.032637   -0.737773    2.216983
 ---------------------------------------------------------------------

 SCF Done:  E(RM062X) =  -532.820260244     A.U. after   17 cycles

 The electronic state is 1-A.
 Alpha  occ. eigenvalues --  -19.89299 -19.83760 -19.80191 -14.97725 -14.92550
 Alpha  occ. eigenvalues --  -10.88108 -10.85839 -10.77491 -10.74897 -10.62967
 Alpha  occ. eigenvalues --   -1.39986  -1.38344  -1.30917  -1.23331  -1.17899
 Alpha  occ. eigenvalues --   -1.05708  -0.96169  -0.89985  -0.88129  -0.84789
 Alpha  occ. eigenvalues --   -0.82362  -0.78152  -0.74390  -0.73481  -0.72869
 Alpha  occ. eigenvalues --   -0.71597  -0.69819  -0.68414  -0.65692  -0.63828
 Alpha  occ. eigenvalues --   -0.63125  -0.60397  -0.58802  -0.56973  -0.56762
 Alpha  occ. eigenvalues --   -0.55812  -0.54838  -0.53757  -0.51234  -0.48868
 Alpha virt. eigenvalues --   -0.25276  -0.14870  -0.11905  -0.03251  -0.00751
 Alpha virt. eigenvalues --   -0.00245   0.01348   0.02164   0.04301   0.05449
 Alpha virt. eigenvalues --    0.07095   0.07721   0.08259   0.10107   0.11214

 Mulliken charges:
               1
     1  C   -0.697839
     2  H    0.213389
     3  H    0.179146
     4  H    0.455312
     5  H    0.168807
     6  H    0.163184
     7  C   -0.319755
     8  C   -0.112186
     9  C    0.552938
    10  N   -0.791914
    11  O   -0.411602
    12  O   -0.606497
    13  C    0.607879
    14  H    0.254278
    15  H    0.211889
    16  H    0.256654
    17  H    0.455910
    18  H    0.384372
    19  H    0.464030
    20  N   -0.699443
    21  O   -0.499271
    22  H    0.356839
    23  H    0.413879
 Sum of Mulliken charges =   1.00000

 Dipole moment (field-independent basis, Debye):
    X=              4.8565    Y=              1.2106    Z=             -1.1218  Tot=              5.1293
 Quadrupole moment (field-independent basis, Debye-Ang):
   XX=            -33.7058   YY=            -45.8460   ZZ=            -46.0618
   XY=             -2.7280   XZ=             -5.6456   YZ=              4.0703

 Normal termination of Gaussian 09 at Thu Mar 12 19:34:46 2020.
