 Gaussian 09, Revision D.01,
 Gaussian 09:  ES64L-G09RevD.01 24-Apr-2013

 --------------
 #p M062X/6-31G
 --------------

 --------
 chk calc
 --------
 Symbolic Z-matrix:
 Charge =  1 Multiplicity = 1

                         Standard orientation:
 ---------------------------------------------------------------------
 Center     Atomic      Atomic             Coordinates (Angstroms)
 Number     Number       Type             X           Y           Z
 ---------------------------------------------------------------------
      1          6           0       -4.367637   -0.941131    0.337601
      2          1           0       -5.270466   -1.544184    0.430933
      3          1           0       -3.648099   -1.492530   -0.272195
      4          1           0        2.335172   -2.625150   -1.585058
      5          1           0       -4.649468    0.001958   -0.139269
      6          1           0       -3.975502   -0.772812    1.344357
      7          6           0        1.655586    0.256553   -0.967161
      8          6           0        0.420796    1.141965   -0.721773
      9          6           0       -0.762224    0.231950   -0.427065
     10          7           0        0.626242    2.044533    0.427077
     11          8           0       -0.721628   -0.987684   -0.563738
     12          8           0       -1.823723    0.932282    0.007259
     13          6           0        1.946341   -0.615211    0.220124
     14          1           0        2.533682    0.882408   -1.165927
     15          1           0        1.480555   -0.369498   -1.844555
     16          1           0        0.192566    1.686293   -1.647800
     17          1           0        1.447743    0.845766    1.473580
     18          1           0       -0.258019    2.364575    0.820261
     19          1           0       -2.630937    0.395540    0.176607
     20          7           0        1.828546   -0.134319    1.419075
     21          8           0        2.376017   -1.859478    0.104982
     22          1           0        1.227565    2.837299    0.214565
     23          1           0        2.029191   -0.706878    2.233059
 ---------------------------------------------------------------------

 SCF Done:  E(RM062X) =  -532.768097192     A.U. after   19 cycles

 The electronic state is 1-A.
 Alpha  occ. eigenvalues --  -19.88625 -19.83594 -19.79986 -14.97265 -14.92379
 Alpha  occ. eigenvalues --  -10.87370 -10.85642 -10.77262 -10.74612 -10.62905
 Alpha  occ. eigenvalues --   -1.39796  -1.37330  -1.30725  -1.22680  -1.17664
 Alpha  occ. eigenvalues --   -1.05383  -0.95903  -0.89891  -0.87562  -0.84263
 Alpha  occ. eigenvalues --   -0.81634  -0.77773  -0.73695  -0.73037  -0.72590
 Alpha  occ. eigenvalues --   -0.71132  -0.68789  -0.67587  -0.65326  -0.63422
 Alpha  occ. eigenvalues --   -0.62771  -0.60157  -0.56908  -0.56803  -0.56699
 Alpha  occ. eigenvalues --   -0.55740  -0.54226  -0.53436  -0.51020  -0.48637
 Alpha virt. eigenvalues --   -0.30898  -0.14288  -0.11712  -0.03084  -0.00558
 Alpha virt. eigenvalues --   -0.00032   0.01564   0.02432   0.04357   0.05692
 Alpha virt. eigenvalues --    0.07350   0.07838   0.08494   0.10158   0.11286

 Mulliken charges:
               1
     1  C   -0.697669
     2  H    0.212909
     3  H    0.179030
     4  H    0.432212
     5  H    0.168694
     6  H    0.163495
     7  C   -0.311156
     8  C   -0.113001
     9  C    0.552322
    10  N   -0.790818
    11  O   -0.411017
    12  O   -0.607006
    13  C    0.590479
    14  H    0.251884
    15  H    0.205616
    16  H    0.254883
    17  H    0.454128
    18  H    0.383820
    19  H    0.463582
    20  N   -0.701715
    21  O   -0.448868
    22  H    0.356354
    23  H    0.411843
 Sum of Mulliken charges =   1.00000

 Dipole moment (field-independent basis, Debye):
    X=              4.9210    Y=              0.8668    Z=             -1.5821  Tot=              5.2413
 Quadrupole moment (field-independent basis, Debye-Ang):
   XX=            -33.7194   YY=            -44.4786   ZZ=            -44.7734
   XY=             -3.5588   XZ=             -6.6693   YZ=              5.6677

 Normal termination of Gaussian 09 at Thu Mar 12 19:37:59 2020.
