 Gaussian 09, Revision D.01,
 Gaussian 09:  ES64L-G09RevD.01 24-Apr-2013

 --------------
 #p M062X/6-31G
 --------------

 --------
 chk calc
 --------
 Symbolic Z-matrix:
 Charge =  1 Multiplicity = 1

                         Standard orientation:
 ---------------------------------------------------------------------
 Center     Atomic      Atomic             Coordinates (Angstroms)
 Number     Number       Type             X           Y           Z
 ---------------------------------------------------------------------
      1          6           0       -4.368610   -0.943040    0.323944
      2          1           0       -5.272491   -1.546299    0.404944
      3          1           0       -3.653166   -1.479326   -0.303881
      4          1           0        2.339895   -2.324767   -1.044206
      5          1           0       -4.650254    0.013327   -0.125822
      6          1           0       -3.971559   -0.803083    1.333112
      7          6           0        1.651636    0.275629   -0.975116
      8          6           0        0.420136    1.156918   -0.700138
      9          6           0       -0.763785    0.241987   -0.424912
     10          7           0        0.632940    2.027421    0.471883
     11          8           0       -0.726798   -0.973569   -0.594879
     12          8           0       -1.821605    0.932722    0.033110
     13          6           0        1.945561   -0.628784    0.186695
     14          1           0        2.530368    0.904608   -1.160777
     15          1           0        1.471141   -0.325914   -1.868404
     16          1           0        0.189100    1.726764   -1.609976
     17          1           0        1.456170    0.798717    1.481663
     18          1           0       -0.248762    2.338713    0.877636
     19          1           0       -2.629369    0.393458    0.191466
     20          7           0        1.834317   -0.180408    1.398800
     21          8           0        2.371659   -1.870459    0.035813
     22          1           0        1.235251    2.824268    0.278276
     23          1           0        2.037196   -0.775364    2.195996
 ---------------------------------------------------------------------

 SCF Done:  E(RM062X) =  -532.901156995     A.U. after   17 cycles

 The electronic state is 1-A.
 Alpha  occ. eigenvalues --  -19.89366 -19.83993 -19.80472 -14.98400 -14.92807
 Alpha  occ. eigenvalues --  -10.89217 -10.86113 -10.77830 -10.75324 -10.63050
 Alpha  occ. eigenvalues --   -1.40768  -1.40142  -1.31184  -1.24619  -1.18255
 Alpha  occ. eigenvalues --   -1.06207  -0.96612  -0.90631  -0.89792  -0.86112
 Alpha  occ. eigenvalues --   -0.83723  -0.78911  -0.76319  -0.73915  -0.73287
 Alpha  occ. eigenvalues --   -0.72441  -0.71874  -0.69036  -0.66170  -0.64449
 Alpha  occ. eigenvalues --   -0.63577  -0.61215  -0.60526  -0.57062  -0.56847
 Alpha  occ. eigenvalues --   -0.55959  -0.55865  -0.54081  -0.51525  -0.49200
 Alpha virt. eigenvalues --   -0.16093  -0.12949  -0.12162  -0.03425  -0.01046
 Alpha virt. eigenvalues --   -0.00498   0.01088   0.01804   0.04384   0.05109
 Alpha virt. eigenvalues --    0.06716   0.07492   0.08004   0.10276   0.11120

 Mulliken charges:
               1
     1  C   -0.698095
     2  H    0.214057
     3  H    0.179388
     4  H    0.488316
     5  H    0.168927
     6  H    0.162735
     7  C   -0.330672
     8  C   -0.111236
     9  C    0.553532
    10  N   -0.793215
    11  O   -0.411675
    12  O   -0.605851
    13  C    0.617312
    14  H    0.258013
    15  H    0.224228
    16  H    0.259311
    17  H    0.458145
    18  H    0.385202
    19  H    0.464684
    20  N   -0.692640
    21  O   -0.565086
    22  H    0.357584
    23  H    0.417034
 Sum of Mulliken charges =   1.00000

 Dipole moment (field-independent basis, Debye):
    X=              4.7539    Y=              1.6931    Z=             -0.5111  Tot=              5.0722
 Quadrupole moment (field-independent basis, Debye-Ang):
   XX=            -33.6064   YY=            -47.4561   ZZ=            -47.4227
   XY=             -1.5689   XZ=             -4.2649   YZ=              2.0673

 Normal termination of Gaussian 09 at Thu Mar 12 19:30:57 2020.
